<?xml version="1.0"?>
<VTKFile type="PolyData" version="0.1" byte_order="LittleEndian">
<PolyData>
<Piece NumberOfPoints="1000" NumberOfVerts="0" NumberOfLines="2700" NumberOfStrips="0" NumberOfPolys="0">
<Points>
<DataArray type="Float32" NumberOfComponents="3" format="ascii">
0.00025 0.00025 0.00025
0.00075 0.00025 0.00025
0.00125 0.00025 0.00025
0.00175 0.00025 0.00025
0.00225 0.00025 0.00025
0.00275 0.00025 0.00025
0.00325 0.00025 0.00025
0.00375 0.00025 0.00025
0.00425 0.00025 0.00025
0.00475 0.00025 0.00025
0.00025 0.00075 0.00025
0.00075 0.00075 0.00025
0.00125 0.00075 0.00025
0.00175 0.00075 0.00025
0.00225 0.00075 0.00025
0.00275 0.00075 0.00025
0.00325 0.00075 0.00025
0.00375 0.00075 0.00025
0.00425 0.00075 0.00025
0.00475 0.00075 0.00025
0.00025 0.00125 0.00025
0.00075 0.00125 0.00025
0.00125 0.00125 0.00025
0.00175 0.00125 0.00025
0.00225 0.00125 0.00025
0.00275 0.00125 0.00025
0.00325 0.00125 0.00025
0.00375 0.00125 0.00025
0.00425 0.00125 0.00025
0.00475 0.00125 0.00025
0.00025 0.00175 0.00025
0.00075 0.00175 0.00025
0.00125 0.00175 0.00025
0.00175 0.00175 0.00025
0.00225 0.00175 0.00025
0.00275 0.00175 0.00025
0.00325 0.00175 0.00025
0.00375 0.00175 0.00025
0.00425 0.00175 0.00025
0.00475 0.00175 0.00025
0.00025 0.00225 0.00025
0.00075 0.00225 0.00025
0.00125 0.00225 0.00025
0.00175 0.00225 0.00025
0.00225 0.00225 0.00025
0.00275 0.00225 0.00025
0.00325 0.00225 0.00025
0.00375 0.00225 0.00025
0.00425 0.00225 0.00025
0.00475 0.00225 0.00025
0.00025 0.00275 0.00025
0.00075 0.00275 0.00025
0.00125 0.00275 0.00025
0.00175 0.00275 0.00025
0.00225 0.00275 0.00025
0.00275 0.00275 0.00025
0.00325 0.00275 0.00025
0.00375 0.00275 0.00025
0.00425 0.00275 0.00025
0.00475 0.00275 0.00025
0.00025 0.00325 0.00025
0.00075 0.00325 0.00025
0.00125 0.00325 0.00025
0.00175 0.00325 0.00025
0.00225 0.00325 0.00025
0.00275 0.00325 0.00025
0.00325 0.00325 0.00025
0.00375 0.00325 0.00025
0.00425 0.00325 0.00025
0.00475 0.00325 0.00025
0.00025 0.00375 0.00025
0.00075 0.00375 0.00025
0.00125 0.00375 0.00025
0.00175 0.00375 0.00025
0.00225 0.00375 0.00025
0.00275 0.00375 0.00025
0.00325 0.00375 0.00025
0.00375 0.00375 0.00025
0.00425 0.00375 0.00025
0.00475 0.00375 0.00025
0.00025 0.00425 0.00025
0.00075 0.00425 0.00025
0.00125 0.00425 0.00025
0.00175 0.00425 0.00025
0.00225 0.00425 0.00025
0.00275 0.00425 0.00025
0.00325 0.00425 0.00025
0.00375 0.00425 0.00025
0.00425 0.00425 0.00025
0.00475 0.00425 0.00025
0.00025 0.00475 0.00025
0.00075 0.00475 0.00025
0.00125 0.00475 0.00025
0.00175 0.00475 0.00025
0.00225 0.00475 0.00025
0.00275 0.00475 0.00025
0.00325 0.00475 0.00025
0.00375 0.00475 0.00025
0.00425 0.00475 0.00025
0.00475 0.00475 0.00025
0.00025 0.00025 0.00075
0.00075 0.00025 0.00075
0.00125 0.00025 0.00075
0.00175 0.00025 0.00075
0.00225 0.00025 0.00075
0.00275 0.00025 0.00075
0.00325 0.00025 0.00075
0.00375 0.00025 0.00075
0.00425 0.00025 0.00075
0.00475 0.00025 0.00075
0.00025 0.00075 0.00075
0.00075 0.00075 0.00075
0.00125 0.00075 0.00075
0.00175 0.00075 0.00075
0.00225 0.00075 0.00075
0.00275 0.00075 0.00075
0.00325 0.00075 0.00075
0.00375 0.00075 0.00075
0.00425 0.00075 0.00075
0.00475 0.00075 0.00075
0.00025 0.00125 0.00075
0.00075 0.00125 0.00075
0.00125 0.00125 0.00075
0.00175 0.00125 0.00075
0.00225 0.00125 0.00075
0.00275 0.00125 0.00075
0.00325 0.00125 0.00075
0.00375 0.00125 0.00075
0.00425 0.00125 0.00075
0.00475 0.00125 0.00075
0.00025 0.00175 0.00075
0.00075 0.00175 0.00075
0.00125 0.00175 0.00075
0.00175 0.00175 0.00075
0.00225 0.00175 0.00075
0.00275 0.00175 0.00075
0.00325 0.00175 0.00075
0.00375 0.00175 0.00075
0.00425 0.00175 0.00075
0.00475 0.00175 0.00075
0.00025 0.00225 0.00075
0.00075 0.00225 0.00075
0.00125 0.00225 0.00075
0.00175 0.00225 0.00075
0.00225 0.00225 0.00075
0.00275 0.00225 0.00075
0.00325 0.00225 0.00075
0.00375 0.00225 0.00075
0.00425 0.00225 0.00075
0.00475 0.00225 0.00075
0.00025 0.00275 0.00075
0.00075 0.00275 0.00075
0.00125 0.00275 0.00075
0.00175 0.00275 0.00075
0.00225 0.00275 0.00075
0.00275 0.00275 0.00075
0.00325 0.00275 0.00075
0.00375 0.00275 0.00075
0.00425 0.00275 0.00075
0.00475 0.00275 0.00075
0.00025 0.00325 0.00075
0.00075 0.00325 0.00075
0.00125 0.00325 0.00075
0.00175 0.00325 0.00075
0.00225 0.00325 0.00075
0.00275 0.00325 0.00075
0.00325 0.00325 0.00075
0.00375 0.00325 0.00075
0.00425 0.00325 0.00075
0.00475 0.00325 0.00075
0.00025 0.00375 0.00075
0.00075 0.00375 0.00075
0.00125 0.00375 0.00075
0.00175 0.00375 0.00075
0.00225 0.00375 0.00075
0.00275 0.00375 0.00075
0.00325 0.00375 0.00075
0.00375 0.00375 0.00075
0.00425 0.00375 0.00075
0.00475 0.00375 0.00075
0.00025 0.00425 0.00075
0.00075 0.00425 0.00075
0.00125 0.00425 0.00075
0.00175 0.00425 0.00075
0.00225 0.00425 0.00075
0.00275 0.00425 0.00075
0.00325 0.00425 0.00075
0.00375 0.00425 0.00075
0.00425 0.00425 0.00075
0.00475 0.00425 0.00075
0.00025 0.00475 0.00075
0.00075 0.00475 0.00075
0.00125 0.00475 0.00075
0.00175 0.00475 0.00075
0.00225 0.00475 0.00075
0.00275 0.00475 0.00075
0.00325 0.00475 0.00075
0.00375 0.00475 0.00075
0.00425 0.00475 0.00075
0.00475 0.00475 0.00075
0.00025 0.00025 0.00125
0.00075 0.00025 0.00125
0.00125 0.00025 0.00125
0.00175 0.00025 0.00125
0.00225 0.00025 0.00125
0.00275 0.00025 0.00125
0.00325 0.00025 0.00125
0.00375 0.00025 0.00125
0.00425 0.00025 0.00125
0.00475 0.00025 0.00125
0.00025 0.00075 0.00125
0.00075 0.00075 0.00125
0.00125 0.00075 0.00125
0.00175 0.00075 0.00125
0.00225 0.00075 0.00125
0.00275 0.00075 0.00125
0.00325 0.00075 0.00125
0.00375 0.00075 0.00125
0.00425 0.00075 0.00125
0.00475 0.00075 0.00125
0.00025 0.00125 0.00125
0.00075 0.00125 0.00125
0.00125 0.00125 0.00125
0.00175 0.00125 0.00125
0.00225 0.00125 0.00125
0.00275 0.00125 0.00125
0.00325 0.00125 0.00125
0.00375 0.00125 0.00125
0.00425 0.00125 0.00125
0.00475 0.00125 0.00125
0.00025 0.00175 0.00125
0.00075 0.00175 0.00125
0.00125 0.00175 0.00125
0.00175 0.00175 0.00125
0.00225 0.00175 0.00125
0.00275 0.00175 0.00125
0.00325 0.00175 0.00125
0.00375 0.00175 0.00125
0.00425 0.00175 0.00125
0.00475 0.00175 0.00125
0.00025 0.00225 0.00125
0.00075 0.00225 0.00125
0.00125 0.00225 0.00125
0.00175 0.00225 0.00125
0.00225 0.00225 0.00125
0.00275 0.00225 0.00125
0.00325 0.00225 0.00125
0.00375 0.00225 0.00125
0.00425 0.00225 0.00125
0.00475 0.00225 0.00125
0.00025 0.00275 0.00125
0.00075 0.00275 0.00125
0.00125 0.00275 0.00125
0.00175 0.00275 0.00125
0.00225 0.00275 0.00125
0.00275 0.00275 0.00125
0.00325 0.00275 0.00125
0.00375 0.00275 0.00125
0.00425 0.00275 0.00125
0.00475 0.00275 0.00125
0.00025 0.00325 0.00125
0.00075 0.00325 0.00125
0.00125 0.00325 0.00125
0.00175 0.00325 0.00125
0.00225 0.00325 0.00125
0.00275 0.00325 0.00125
0.00325 0.00325 0.00125
0.00375 0.00325 0.00125
0.00425 0.00325 0.00125
0.00475 0.00325 0.00125
0.00025 0.00375 0.00125
0.00075 0.00375 0.00125
0.00125 0.00375 0.00125
0.00175 0.00375 0.00125
0.00225 0.00375 0.00125
0.00275 0.00375 0.00125
0.00325 0.00375 0.00125
0.00375 0.00375 0.00125
0.00425 0.00375 0.00125
0.00475 0.00375 0.00125
0.00025 0.00425 0.00125
0.00075 0.00425 0.00125
0.00125 0.00425 0.00125
0.00175 0.00425 0.00125
0.00225 0.00425 0.00125
0.00275 0.00425 0.00125
0.00325 0.00425 0.00125
0.00375 0.00425 0.00125
0.00425 0.00425 0.00125
0.00475 0.00425 0.00125
0.00025 0.00475 0.00125
0.00075 0.00475 0.00125
0.00125 0.00475 0.00125
0.00175 0.00475 0.00125
0.00225 0.00475 0.00125
0.00275 0.00475 0.00125
0.00325 0.00475 0.00125
0.00375 0.00475 0.00125
0.00425 0.00475 0.00125
0.00475 0.00475 0.00125
0.00025 0.00025 0.00175
0.00075 0.00025 0.00175
0.00125 0.00025 0.00175
0.00175 0.00025 0.00175
0.00225 0.00025 0.00175
0.00275 0.00025 0.00175
0.00325 0.00025 0.00175
0.00375 0.00025 0.00175
0.00425 0.00025 0.00175
0.00475 0.00025 0.00175
0.00025 0.00075 0.00175
0.00075 0.00075 0.00175
0.00125 0.00075 0.00175
0.00175 0.00075 0.00175
0.00225 0.00075 0.00175
0.00275 0.00075 0.00175
0.00325 0.00075 0.00175
0.00375 0.00075 0.00175
0.00425 0.00075 0.00175
0.00475 0.00075 0.00175
0.00025 0.00125 0.00175
0.00075 0.00125 0.00175
0.00125 0.00125 0.00175
0.00175 0.00125 0.00175
0.00225 0.00125 0.00175
0.00275 0.00125 0.00175
0.00325 0.00125 0.00175
0.00375 0.00125 0.00175
0.00425 0.00125 0.00175
0.00475 0.00125 0.00175
0.00025 0.00175 0.00175
0.00075 0.00175 0.00175
0.00125 0.00175 0.00175
0.00175 0.00175 0.00175
0.00225 0.00175 0.00175
0.00275 0.00175 0.00175
0.00325 0.00175 0.00175
0.00375 0.00175 0.00175
0.00425 0.00175 0.00175
0.00475 0.00175 0.00175
0.00025 0.00225 0.00175
0.00075 0.00225 0.00175
0.00125 0.00225 0.00175
0.00175 0.00225 0.00175
0.00225 0.00225 0.00175
0.00275 0.00225 0.00175
0.00325 0.00225 0.00175
0.00375 0.00225 0.00175
0.00425 0.00225 0.00175
0.00475 0.00225 0.00175
0.00025 0.00275 0.00175
0.00075 0.00275 0.00175
0.00125 0.00275 0.00175
0.00175 0.00275 0.00175
0.00225 0.00275 0.00175
0.00275 0.00275 0.00175
0.00325 0.00275 0.00175
0.00375 0.00275 0.00175
0.00425 0.00275 0.00175
0.00475 0.00275 0.00175
0.00025 0.00325 0.00175
0.00075 0.00325 0.00175
0.00125 0.00325 0.00175
0.00175 0.00325 0.00175
0.00225 0.00325 0.00175
0.00275 0.00325 0.00175
0.00325 0.00325 0.00175
0.00375 0.00325 0.00175
0.00425 0.00325 0.00175
0.00475 0.00325 0.00175
0.00025 0.00375 0.00175
0.00075 0.00375 0.00175
0.00125 0.00375 0.00175
0.00175 0.00375 0.00175
0.00225 0.00375 0.00175
0.00275 0.00375 0.00175
0.00325 0.00375 0.00175
0.00375 0.00375 0.00175
0.00425 0.00375 0.00175
0.00475 0.00375 0.00175
0.00025 0.00425 0.00175
0.00075 0.00425 0.00175
0.00125 0.00425 0.00175
0.00175 0.00425 0.00175
0.00225 0.00425 0.00175
0.00275 0.00425 0.00175
0.00325 0.00425 0.00175
0.00375 0.00425 0.00175
0.00425 0.00425 0.00175
0.00475 0.00425 0.00175
0.00025 0.00475 0.00175
0.00075 0.00475 0.00175
0.00125 0.00475 0.00175
0.00175 0.00475 0.00175
0.00225 0.00475 0.00175
0.00275 0.00475 0.00175
0.00325 0.00475 0.00175
0.00375 0.00475 0.00175
0.00425 0.00475 0.00175
0.00475 0.00475 0.00175
0.00025 0.00025 0.00225
0.00075 0.00025 0.00225
0.00125 0.00025 0.00225
0.00175 0.00025 0.00225
0.00225 0.00025 0.00225
[...]
<PointData Scalars="pore_data">
<DataArray type="Float32" Name="diameter" format="ascii">
1.03243269436 0.628835353456 0.737040042304 1.16609774897 1.42204947045 2.82415766006 1.79311072066 3.5315162686 1.39432111492 0.541717858385 0.787051022224 0.314605832199 2.640434688 3.79937332927 4.70376282453 3.56499070551 0.232459141242 2.39851384983 0.649839606715 2.97195068279 5.09884124804 2.83588494488 0.100891855062 1.7781077727 0.621193571305 2.89806712818 1.10145753599 6.41094703428 1.4096595227 0.812413117007 3.15492964353 0.332976828649 3.52423358473 0.5748269128 0.820185425532 0.597193019721 4.702813987 0.856476683683 3.90031162337 3.56413754627 1.41678235388 1.66416383353 0.552331207296 7.02081248421 2.81345326141 0.754100149349 2.64310318303 1.52823061131 0.376159158576 5.2801283372 0.638751160842 1.05226568346 3.48848325118 2.52531866303 3.1335473799 3.2160506345 2.5738940607 2.71014541155 2.3069550989 3.24620349532 3.84846692827 0.848820746872 0.836962300033 2.51882098783 2.45838547081 5.95663340979 1.11760433532 1.27306983171 2.25649853213 1.54818223773 2.58884374727 1.40752897035 0.878142969021 4.91118233263 1.57787879246 2.08542483476 3.34744595594 1.70606755563 4.08807677211 3.81214022041 0.411996511951 2.13067127607 1.27017700623 1.67889205096 0.899378600912 1.69802457195 1.99837854486 2.73816715977 5.61686078008 2.09028113835 1.63209131926 3.14081733591 2.82417100142 2.37603560766 1.61492371772 1.88676282501 4.63903118785 1.76008174971 0.732320961148 0.992765983672 0.376402612802 1.26314291384 0.964978177593 5.69015998647 1.93965027673 1.37934548096 2.43277539799 0.864581305345 0.69094720275 2.61829706677 0.565474796935 2.35206797344 6.19137283374 0.681809292535 0.829051472262 1.48658935377 1.0912820788 1.84330082212 0.726020776607 4.08830737681 2.95315318806 2.72446854042 0.82094263969 4.04697247756 3.23118134649 1.30946259126 1.40974986728 3.07297147357 1.57726546015 2.57528419795 2.94964995197 2.08846072511 2.7005973555 0.84721688574 1.8704144704 2.95929980429 0.390775277734 2.13209079365 0.795544942061 1.55447290183 2.64695914716 2.00610666006 1.591636685 3.82599128311 2.75958670918 1.38158577533 1.53857956593 0.944553003977 1.15551901369 2.2780734702 4.49848885957 1.31504751511 5.74493835759 4.43596648753 0.468087035713 4.0954235274 1.13490919813 0.82883633196 2.98381834879 2.1051657387 0.563001980866 2.62559183004 1.08748056996 1.8166973233 0.550190357898 2.06857704545 2.8589269739 1.25719264104 1.23517071332 1.54527491771 3.21877477218 1.15856117009 1.18755530359 1.22928328481 1.32136911745 1.09320509391 0.435998559754 1.49964777886 1.05368572956 1.17362226228 2.92455100966 3.09678932787 1.71978644771 0.24365448832 1.00842329387 1.45898628461 0.549354008027 2.6412431259 2.72788961491 3.41714320066 2.14468402877 1.34570412028 1.71574617715 1.57868152335 4.4278974544 3.26743459107 0.532421852816 1.76840463593 2.91909977237 0.562177926485 2.11631301524 1.72119557457 0.211547128969 2.67071347832 0.305077833068 1.06101430623 8.05620416031 1.73833176226 0.612658003521 2.06416348318 1.52946875263 3.19383201756 0.272746954749 0.807011731804 5.2633624097 1.8515580844 2.66750210365 3.0919199985 1.19089963256 2.40884553415 2.10882998965 0.527187024979 7.44150302909 0.0950097599338 0.978570572105 1.2814898355 1.35062871709 1.42636007036 0.453707568845 1.5105014136 0.531463099536 0.653875705224 1.77710321162 0.84498570488 2.34974952331 3.23908350237 1.75062212174 4.67117505728 0.66383613067 5.62362974894 0.987816527714 0.580749913203 0.520325896268 0.974358708207 0.696916513359 3.52477268989 3.07717636395 2.83787997293 1.41292671706 2.74012493306 1.74024356743 0.507889583591 3.99448102072 1.10185909053 1.54359401238 0.661691434002 1.90387920756 1.18286340014 4.35272621014 2.07669652885 4.64967792802 1.5249904784 0.629130734891 2.36386263519 2.08544824583 1.08011103111 0.853113168884 1.39392747801 3.0103736424 3.02076000718 1.94107983363 4.21890199683 1.97364016874 1.41211912416 3.74698797172 3.12494401095 3.55670825264 3.58521559212 0.644543657328 2.50208453579 1.98626918394 0.729894788865 2.64340072818 4.31333427455 2.1326632363 2.8983862706 1.45862856689 1.674832375 0.463276492759 0.229043936318 3.26916243202 0.526228842725 0.315928440409 1.04700389135 2.1266961914 0.549602012221 3.53938367575 1.2624414339 0.744451029801 0.595856827148 1.33627032767 4.23549111122 1.59027737004 0.876839802861 1.74592680536 2.39072886692 0.996229116134 1.9692042714 1.21090030249 3.8085968642 1.58806906883 5.82493447949 4.45883783249 3.71388787768 2.23644106454 0.362508993783 2.01679251 2.81982218158 1.45593369348 3.32612358867 0.4343362064 2.43644973535 1.67137860404 1.87371053851 2.44543209901 0.551901314274 2.52227575197 2.79028933387 0.869294564681 2.35681913788 1.98280062149 1.45935333085 1.45459697508 2.85374525394 1.27072665851 2.61155121633 1.00529212382 1.64554148395 1.7320116569 4.65067298519 0.694430384072 0.543480044656 1.73436294652 0.936060116591 3.68899139945 1.71503752528 2.88306792888 2.06417447944 3.93454736136 3.84243414172 5.45962579484 0.798385832145 4.8180576381 1.06730737266 2.83602598814 2.20001940506 1.37288645002 0.584097749314 2.67213681624 0.830192007242 2.92339125757 0.819270027284 2.06146773612 5.13431141733 1.03136933836 0.891237051713 0.359937015686 1.31248827967 2.52646352526 2.21789924695 0.912164167636 1.65844811964 1.79834828736 2.19674768812 2.47532978036 1.66000702718 1.45530718513 1.30812821688 0.566187187147 0.570057602216 0.407247098525 1.54545730069 0.91519666285 1.52890910229 1.97869623847 3.42112533144 1.34902656002 3.76676815371 1.01716881217 0.487663624611 3.5245810802 1.12053171142 3.63870321095 1.34752670504 1.24498104071 2.77291321028 1.28360063089 2.56803288686 4.42376240498 2.20644985434 1.34892537992 1.19994149376 1.26822839764 2.72640730074 4.1769576103 1.31466681443 0.648503979641 2.23635658403 2.23717346986 2.20379759611 2.81570450574 1.96042250396 3.06395412113 1.66909503161 1.0403117369 1.46100859041 0.560465223433 3.27812356803 2.8481213773 0.368911842868 0.931905892249 0.926853453168 0.716260769828 1.06825253783 0.974935812113 1.86176427347 3.10347005458 1.30771982109 4.34751781332 4.6441822612 2.98391667546 1.15706825061 2.72363127544 2.01662893091 1.96022170837 1.32292025054 2.98633335875 4.60186249854 1.84929155129 0.373755190857 2.68573666076 0.715699979425 2.38861167636 0.610339890839 0.852376225997 1.22608201453 2.7570782469 2.58587399631 1.03589688403 2.25710940831 0.330904872798 0.890383885529 3.06340345773 1.38509845107 5.44494847511 4.99184139261 2.73961527151 1.63392737529 2.92626478902 1.94730872303 0.730447327696 6.89338145813 1.31144039709 5.75126700666 4.45622675646 5.50324561007 1.79640161211 3.95172969276 2.49465570275 1.29740797419 6.3691340698 0.78518509303 2.15776745628 3.46917197728 3.55445910215 1.97854254255 1.34753750655 2.51811134584 0.786726487281 4.93109523218 1.84161685592 2.1579760965 2.70674043983 2.20119727826 2.14407239787 1.68882557082 0.424097354261 0.177511848303 2.58318750659 0.320007189571 2.15050701991 2.11152647919 0.25783274077 5.48838755772 1.94956261471 2.51785861381 0.996595402573 1.13024304099 1.43065459522 2.0080497761 3.08669532725 1.00102094997 3.55543049162 0.435814475306 3.51420904732 4.38197750348 0.696661689301 3.84908729854 0.643652223427 4.22204695019 2.97514476717 1.07290683794 6.7136615972 3.8812224076 4.61900152959 0.657560235031 1.73581506977 1.71693829686 2.51492773962 0.192738588 2.73476878723 0.506827312726 0.20617577098 0.202056280662 0.411345664024 1.57496900903 1.28381013811 0.79817158976 1.66803392424 0.558279611214 1.39751280955 6.52284974629 2.71417267609 0.160357389591 2.6078438571 5.14591678492 1.86418127666 1.12222474525 2.89687704948 0.302926878414 0.484760367384 6.07624176215 1.22438839444 0.768604493568 4.6206260005 0.958271323846 0.955975437792 2.41917059883 0.859400632205 3.24970575678 0.572001944151 2.09677360908 0.212169492926 4.04437069457 3.19966984512 1.33500254664 0.638515525123 0.911949872831 1.3173304088 0.11947220582 1.35872055779 3.3503989417 1.02768443917 1.91733239624 0.190275062239 0.738064868476 4.70806372775 2.44180798868 4.71105441524 1.34911019317 1.26496068726 3.26319532491 0.302328497705 3.4682188224 0.935993535023 2.13094129265 3.1146467873 2.41405579482 1.05241753684 3.88001602702 7.56044572822 2.26780369622 0.141250420743 1.9105283667 0.995660324484 2.61607139723 2.55778336845 1.00743414388 0.522460496397 1.07312543685 1.32491044485 1.67443900314 4.55282277204 0.285837825623 1.88662483238 2.81573538224 0.703811262747 2.52769734174 0.881789155163 1.27522945097 2.39953772764 2.30642704973 0.807366086204 0.6951661335 2.58252827521 3.96785059284 1.91355147817 3.2073804688 1.3447916285 1.32594392158 3.25542894311 3.38513169869 3.88474661402 3.43653735175 3.79247668935 1.93652691831 1.36322111816 2.38647999352 0.0865646463524 5.19902990826 4.38908507896 0.319652099031 1.57485635385 0.672650510529 2.44194094357 1.16438902092 3.41143279589 0.978549335551 0.25674618811 2.64861113057 0.940725404895 2.65707225162 1.60011181673 1.61807561085 3.97360620317 0.419212204394 0.559547705799 1.64024792556 2.28822338001 4.82054687601 1.97978770366 3.08726734118 4.41558593909 2.33306971122 3.49316314875 0.227194417217 2.70801838858 0.648133494767 0.422960092151 4.46043628625 0.648246622094 3.59226841287 1.34993931865 1.60774156096 2.30016200186 0.848539663727 0.564980377427 3.97699793573 0.652225335523 1.37879773283 1.14320435898 0.652999512388 1.54591678966 3.6354078132 7.69172923318 2.33328780884 3.66646340395 2.13117041398 1.14016326082 2.15609352439 0.451100912985 5.8583038682 2.38659951356 1.66256365484 1.64566776592 3.51425794883 0.632670685821 1.79702706058 2.73941367476 1.50960815484 1.10307923032 2.65699477139 1.0323425094 2.60453805393 2.6185424763 2.30336640041 3.35588392411 0.366333846606 1.76702479403 0.983496562629 2.49299800605 0.114430176956 4.52939903535 1.88240004046 1.92610120799 1.84846763385 1.36544341194 1.5925274537 2.83671054442 3.97108204558 0.373369395694 1.94094793252 0.731471876418 2.59457238698 1.19950626077 1.18956500255 2.16514355689 2.60793000028 3.72098341824 0.967159313843 1.16117086088 5.67784361867 1.98776000192 1.77596877537 1.38393689228 0.919752669857 2.15607926612 1.57015320219 1.86237219352 1.85190876829 3.30650042918 2.06781559144 1.24009762161 5.58033613124 6.3772174159 1.2230504645 0.473529861709 1.46886805594 1.13984426515 1.05283845374 2.15460686688 0.804400112376 7.31751388433 1.66668344921 3.54898471218 2.81144479431 1.46100615741 2.70709541209 2.417951614 1.49931237452 1.70459634592 1.34696054628 3.90454736535 0.254630580346 1.75414341972 1.13599472995 2.21957023815 0.835564991992 1.27992731155 2.22949942397 1.26869694196 2.55967647354 1.87532292743 1.20647799823 1.38348889 3.89793331956 1.0543751713 3.93109177712 0.564942981301 1.26703886332 3.24076061175 0.868421388714 1.17198067612 0.771095886963 0.46077667868 1.11911422005 5.65428868166 1.93215662545 1.93434226576 2.14245617288 0.374151100571 4.3113575445 0.463672490289 1.48590156745 3.7774019324 0.759320014591 4.59035607704 1.59487378357 1.05846660976 0.684691715118 1.76359567689 3.54778339339 0.764089603198 3.14934811967 0.368426778422 0.320169947378 0.848559524645 7.02563547215 4.07094365174 2.72575314279 5.36477771758 1.37177191704 2.6870060494 1.24790459811 2.19618149065 1.72870028791 5.47412561726 1.30752777437 1.27796750404 1.6974476268 2.21976719056 0.493140003697 2.27069981625 6.28107598595 3.36556781209 2.29671398859 4.48931730589 1.08854090729 1.22427990651 1.66495004814 1.31658513959 0.941470373011 1.34969172017 1.68953700499 0.966920366798 1.82913785028 1.23094396839 1.91022236798 1.54417801873 1.56760412315 1.08222591109 3.24541753173 1.49050011647 3.69539654738 3.40546435312 2.07325483596 4.46847253525 5.32596776262 1.06673925506 4.49123274008 0.427890724723 1.0349459894 3.5696708616 1.06977505844 1.01478078728 0.787344925825 2.10882143213 1.36271331124 2.70939343571 1.33382664343 1.04542050436 0.989992989773 0.985237999257 0.866194907931 1.54926187333 1.99368373111 3.23156302583 1.35914699273 0.797131442345 0.832737911179 6.97491096809 0.0609622128974 2.37005907684 3.49654775733 2.22195977197 0.774889341852 2.76172626186 1.2343216083 3.24967703194 1.87699301007 4.29806288882 1.05120451005 2.56646561642 1.00813268661 1.64197206403 0.237754818176 2.12762665795 3.22434425026 3.66915668984 1.31668752202 0.733218676366 0.574712054817 1.74163762082 2.23260174967 1.72833583565 2.68986461104 1.18708240326 1.49515906763 6.38816411493 0.625810180446 5.99846842939 1.09941472455 0.455386380415 1.51394493718 0.525946571793 0.318756659108 1.37484115467 1.95894455224 7.37802690298 0.580530121543 0.648794080312 2.53620199875 0.269770758916 0.510892017199 0.437483784826 0.640305716306 0.405586135723 0.973141039819 0.90101898029 0.534476533304 2.94134154333 1.53664815234 0.751580199588 5.84701675036 4.0093365085 4.05874813904 3.9997982381 3.40089311951 1.40424762631 0.231778822386 6.3900178397 5.12282454897 2.6370152873 1.12564557662 2.17018110165 3.30201361483 1.90866379853 0.772627083383 3.49166077813 2.27272930074 0.263113987351 1.88713989928 0.469057596105 1.4943180062 1.22647543442 0.674274451453 3.691123547 2.00265027225 3.48908993078 1.61522256365 1.7935418241 4.65547022068 2.08645638072 1.97041283385 1.15096608499 0.434280087372 1.93628101543 0.621926738635 0.890033224613 2.73856342458 1.81776725482 5.07387318917 4.0142291247 3.78591230684 4.34593821695 1.93790783955 1.1035502668 2.9792962661 0.900531031067 3.59224592039 2.41172001647 1.79622359244 0.780167696391 1.26435609601 1.82382790514 2.49354164141 2.58783667812 1.4161605244 4.14190513147 0.122765828674 0.865717958106 0.400293139045 3.07535588392 2.65824642444 0.310646328207 0.71235962135 2.80249038367 1.15886096168 2.43151553784 1.26404366 4.22582693214 2.04985264442 1.66041411787 1.85446476825 5.3173885419 0.641248060241 2.76765197749 0.549457244845 1.33484851998 4.39706016539 1.40080217574 2.00345410742 1.23239712702 1.1607089295 2.30300829544 2.53038218406 1.0936986476 4.85006623528 2.18809523736 1.78487943091 1.61035419078 1.85923139115 3.69798658473 1.26246709788 1.79376819698 2.99756134961 1.83110306746 1.28826651018 1.3414494206 1.46246055059 
</DataArray>
<DataArray type="Float32" Name="Concentration_at_0.04" format="ascii">
0.0 0.0 0.0 0.0 0.0 0.0 0.0 0.0 0.0 0.0 0.0 0.0 0.0 0.0 0.0 0.0 0.0 0.0 0.0 0.0 0.0 0.0 0.0 0.0 0.0 0.0 0.0 0.0 0.0 0.0 0.0 0.0 0.0 0.0 0.0 0.0 0.0 0.0 0.0 0.0 0.0 0.0 0.0 0.0 0.0 0.0 0.0 0.0 0.0 0.0 0.0 0.0 0.0 0.0 0.0 0.0 0.0 0.0 0.0 0.0 0.0 0.0 0.0 0.0 0.0 0.0 0.0 0.0 0.0 0.0 0.0 0.0 0.0 0.0 0.0 0.0 0.0 0.0 0.0 0.0 0.0 0.0 0.0 0.0 0.0 0.0 0.0 0.0 0.0 0.0 0.0 0.0 0.0 0.0 0.0 0.0 0.0 0.0 0.0 0.0 0.0 0.0 0.0 0.0 0.0 0.0 0.0 0.0 0.0 0.0 0.0 0.0 0.0 0.0 0.0 0.0 0.0 0.0 0.0 0.0 0.0 0.0 0.0 0.0 0.0 0.0 0.0 0.0 0.0 0.0 0.0 0.0 0.0 0.0 0.0 0.0 0.0 0.0 0.0 0.0 0.0 0.0 0.0 0.0 0.0 0.0 0.0 0.0 0.0 0.0 0.0 0.0 0.0 0.0 0.0 0.0 0.0 0.0 0.0 0.0 0.0 0.0 0.0 0.0 0.0 0.0 0.0 0.0 0.0 0.0 0.0 0.0 0.0 0.0 0.0 0.0 0.0 0.0 0.0 0.0 0.0 0.0 0.0 0.0 0.0 0.0 0.0 0.0 0.0 0.0 0.0 0.0 0.0 0.0 0.0 0.0 0.0 0.0 0.0 0.0 0.0 0.0 0.0 0.0 0.0 0.0 0.0 0.0 0.0 0.0 0.0 0.0 0.0 0.0 0.0 0.0 -0 0.0 0.0 -0 0.0 0.0 -0 0.0 0.0 0.0 0.0 0.0 0.0 0.0 0.0 0.0 0.0 -0 0.0 0.0 0.0 0.0 0.0 0.0 0.0 0.0 0.0 0.0 0.0 0.0 0.0 0.0 0.0 0.0 0.0 0.0 0.0 0.0 0.0 0.0 0.0 0.0 0.0 0.0 0.0 0.0 0.0 0.0 0.0 0.0 0.0 0.0 0.0 0.0 0.0 0.0 0.0 0.0 0.0 0.0 0.0 0.0 0.0 0.0 0.0 0.0 0.0 0.0 0.0 0.0 0.0 0.0 0.0 0.0 -0 0.0 0.0 0.0 0.0 0.0 0.0 0.0 0.0 0.0 -0 -0 -0 0.0 -0 -0 0.0 -0 -0 -0 -0 -0 -0 0.0 0.0 -0 -0 -0 -0 -0 -0 -0 -0 -0 -0 0.0 0.0 0.0 -0 -0 0.0 0.0 -0 -0 0.0 0.0 0.0 0.0 0.0 0.0 -0 0.0 0.0 0.0 0.0 0.0 0.0 0.0 0.0 0.0 0.0 0.0 0.0 0.0 0.0 0.0 0.0 0.0 0.0 0.0 0.0 0.0 0.0 0.0 0.0 0.0 0.0 0.0 0.0 0.0 0.0 0.0 0.0 0.0 0.0 0.0 0.0 0.0 0.0 0.0 -0 0.0 0.0 0.0 0.0 0.0 0.0 0.0 0.0 0.0 -0 0.0 0.0 0.0 0.0 0.0 0.0 0.0 0.0 0.0 0.0 0.0 -0 -0 -0 0.0 0.0 0.0 -0 0.0 0.0 -0 -0 -0 -0 -0 0.0 -0 -0 0.0 -0 -0 0.0 -0 0.0 0.0 0.0 -0 -0 -0 -0 -0 -0 0.0 0.0 0.0 0.0 0.0 0.0 -0 -0 -0 -0 -0 0.0 0.0 0.0 0.0 0.0 0.0 -0 0.0 0.0 0.0 0.0 0.0 0.0 0.0 0.0 0.0 0.0 0.0 0.0 0.0 0.0 0.0 0.0 0.0 0.0 0.0 -0 0.0 0.0 0.0 0.0 0.0 0.0 0.0 0.0 0.0 -0 0.0 0.0 0.0 0.0 0.0 0.0 0.0 0.0 0.0 0.0 0.0 0.0 0.0 0.0 0.0 0.0 0.0 0.0 0.0 0.0 0.0 0.0 -0 0.0 0.0 0.0 0.0 0.0 0.0 0.0 0.0 0.0 -0 -0 0.0 0.0 0.0 0.0 0.0 0.0 0.0 0.0 0.0 0.0 0.0 0.0 -0 0.0 0.0 -0 -0 0.0 0.0 0.0 0.0 0.0 0.0 -0 -0 0.0 -0 -0 0.0 0.0 0.0 0.0 0.0 0.0 0.0 -0 -0 -0 0.0 0.0 0.0 0.0 0.0 0.0 0.0 -0 -0 0.0 0.0 0.0 0.0 0.0 0.0 0.0 0.0 -0 0.0 0.0 0.0 0.0 0.0 0.0 0.0 0.0 0.0 0.0 0.0 0.0 0.0 0.0 0.0 0.0 0.0 0.0 0.0 0.0 0.0 0.0 0.0 0.0 0.0 0.0 0.0 0.0 0.0 0.0 0.0 0.0 0.0 0.0 0.0 0.0 0.0 0.0 0.0 0.0 0.0 0.0 0.0 0.0 0.0 0.0 0.0 0.0 0.0 0.0 0.0 0.0 0.0 0.0 0.0 0.0 0.0 0.0 0.0 0.0 0.0 0.0 0.0 0.0 0.0 0.0 0.0 0.0 0.0 0.0 0.0 0.0 0.0 0.0 0.0 0.0 0.0 0.0 0.0 0.0 -0 -0 0.0 0.0 0.0 0.0 0.0 0.0 0.0 -0 0.0 0.0 0.0 0.0 0.0 0.0 0.0 0.0 0.0 0.0 0.0 0.0 0.0 0.0 0.0 0.0 0.0 0.0 0.0 0.0 0.0 0.0 0.0 0.0 0.0 0.0 0.0 0.0 0.0 0.0 0.0 0.0 0.0 0.0 0.0 0.0 0.0 0.0 0.0 0.0 0.0 0.0 0.0 0.0 0.0 0.0 0.0 0.0 0.0 0.0 0.0 0.0 0.0 0.0 0.0 0.0 0.0 0.0 0.0 0.0 0.0 0.0 0.0 0.0 0.0 0.0 0.0 0.0 0.0 0.0 0.0 0.0 0.0 0.0 0.0 0.0 0.0 0.0 0.0 0.0 0.0 0.0 0.0 0.0 0.0 0.0 0.0 0.0 0.0 0.0 0.0 0.0 0.0 0.0 0.0 0.0 0.0 0.0 0.0 0.0 0.0 0.0 0.0 0.0 0.0 0.0 0.0 0.0 0.0 0.0 0.0 0.0 0.0 0.0 0.0 0.0 0.0 0.0 0.0 0.0 0.0 0.0 0.0 0.0 0.0 0.0 0.0 0.0 0.0 0.0 0.0 0.0 0.0 0.0 0.0 0.0 0.0 0.0 0.0 0.0 0.0 0.0 0.0 0.0 0.0 0.0 0.0 0.0 0.0 0.0 0.0 0.0 0.0 0.0 0.0 0.0 0.0 0.0 0.0 0.0 0.0 0.0 0.0 0.0 0.0 0.0 0.0 0.0 0.0 0.0 0.0 0.0 0.0 0.0 0.0 0.0 0.0 0.0 0.0 0.0 0.0 0.0 0.0 0.0 0.0 0.0 0.0 0.0 0.0 0.0 0.0 0.0 0.0 0.0 0.0 0.0 0.0 0.0 0.0 0.0 0.0 0.0 0.0 0.0 0.0 0.0 0.0 0.0 0.0 0.0 0.0 0.0 0.0 0.0 0.0 0.0 0.0 0.0 0.0 0.0 0.0 0.0 0.0 0.0 0.0 0.0 0.0 0.0 0.0 0.0 0.0 0.0 0.0 0.0 0.0 0.0 0.0 0.0 0.0 0.0 0.0 0.0 0.0 0.0 0.0 0.0 0.0 0.0 0.0 0.0 0.0 0.0 0.0 0.0 0.0 0.0 0.0 0.0 0.0 0.0 0.0 0.0 0.0 0.0 0.0 0.0 0.0 0.0 0.0 0.0 0.0 0.0 0.0 0.0 0.0 0.0 0.0 0.0 0.0 0.0 0.0 0.0 0.0 0.0 0.0 0.0 0.0 0.0 0.0 0.0 0.0 0.0 0.0 0.0 0.0 0.0 0.0 0.0 0.0 0.0 0.0 0.0 0.0 0.0 0.0 0.0 0.0 0.0 0.0 0.0 0.0 0.0 0.0 0.0 0.0 0.0 0.0 0.0 0.0 0.0 0.0 0.0 0.0 0.0 0.0 0.0 0.0 0.0 0.0 0.0 0.0 0.0 0.0 0.0 0.0 0.0 0.0 0.0 0.0 
</DataArray>
<DataArray type="Float32" Name="BCvalue" format="ascii">