<VTKFile byte_order="LittleEndian" type="PolyData" version="0.1">
        <PolyData>
            <Piece NumberOfLines="9450" NumberOfPoints="3375">
                <Points>
                <DataArray Name="coords" NumberOfComponents="3" type="Float64">5e-05	5e-05	5e-05	5e-05	5e-05	0.00015	5e-05	5e-05	0.00025	5e-05	5e-05	0.00035	5e-05	5e-05	0.00045	5e-05	5e-05	0.00055	5e-05	5e-05	0.00065	5e-05	5e-05	0.00075	5e-05	5e-05	0.00085	5e-05	5e-05	0.00095	5e-05	5e-05	0.00105	5e-05	5e-05	0.00115	5e-05	5e-05	0.00125	5e-05	5e-05	0.00135	5e-05	5e-05	0.00145	5e-05	0.00015	5e-05	5e-05	0.00015	0.00015	5e-05	0.00015	0.00025	5e-05	0.00015	0.00035	5e-05	0.00015	0.00045	5e-05	0.00015	0.00055	5e-05	0.00015	0.00065	5e-05	0.00015	0.00075	5e-05	0.00015	0.00085	5e-05	0.00015	0.00095	5e-05	0.00015	0.00105	5e-05	0.00015	0.00115	5e-05	0.00015	0.00125	5e-05	0.00015	0.00135	5e-05	0.00015	0.00145	5e-05	0.00025	5e-05	5e-05	0.00025	0.00015	5e-05	0.00025	0.00025	5e-05	0.00025	0.00035	5e-05	0.00025	0.00045	5e-05	0.00025	0.00055	5e-05	0.00025	0.00065	5e-05	0.00025	0.00075	5e-05	0.00025	0.00085	5e-05	0.00025	0.00095	5e-05	0.00025	0.00105	5e-05	0.00025	0.00115	5e-05	0.00025	0.00125	5e-05	0.00025	0.00135	5e-05	0.00025	0.00145	5e-05	0.00035	5e-05	5e-05	0.00035	0.00015	5e-05	0.00035	0.00025	5e-05	0.00035	0.00035	5e-05	0.00035	0.00045	5e-05	0.00035	0.00055	5e-05	0.00035	0.00065	5e-05	0.00035	0.00075	5e-05	0.00035	0.00085	5e-05	0.00035	0.00095	5e-05	0.00035	0.00105	5e-05	0.00035	0.00115	5e-05	0.00035	0.00125	5e-05	0.00035	0.00135	5e-05	0.00035	0.00145	5e-05	0.00045	5e-05	5e-05	0.00045	0.00015	5e-05	0.00045	0.00025	5e-05	0.00045	0.00035	5e-05	0.00045	0.00045	5e-05	0.00045	0.00055	5e-05	0.00045	0.00065	5e-05	0.00045	0.00075	5e-05	0.00045	0.00085	5e-05	0.00045	0.00095	5e-05	0.00045	0.00105	5e-05	0.00045	0.00115	5e-05	0.00045	0.00125	5e-05	0.00045	0.00135	5e-05	0.00045	0.00145	5e-05	0.00055	5e-05	5e-05	0.00055	0.00015	5e-05	0.00055	0.00025	5e-05	0.00055	0.00035	5e-05	0.00055	0.00045	5e-05	0.00055	0.00055	5e-05	0.00055	0.00065	5e-05	0.00055	0.00075	5e-05	0.00055	0.00085	5e-05	0.00055	0.00095	5e-05	0.00055	0.00105	5e-05	0.00055	0.00115	5e-05	0.00055	0.00125	5e-05	0.00055	0.00135	5e-05	0.00055	0.00145	5e-05	0.00065	5e-05	5e-05	0.00065	0.00015	5e-05	0.00065	0.00025	5e-05	0.00065	0.00035	5e-05	0.00065	0.00045	5e-05	0.00065	0.00055	5e-05	0.00065	0.00065	5e-05	0.00065	0.00075	5e-05	0.00065	0.00085	5e-05	0.00065	0.00095	5e-05	0.00065	0.00105	5e-05	0.00065	0.00115	5e-05	0.00065	0.00125	5e-05	0.00065	0.00135	5e-05	0.00065	0.00145	5e-05	0.00075	5e-05	5e-05	0.00075	0.00015	5e-05	0.00075	0.00025	5e-05	0.00075	0.00035	5e-05	0.00075	0.00045	5e-05	0.00075	0.00055	5e-05	0.00075	0.00065	5e-05	0.00075	0.00075	5e-05	0.00075	0.00085	5e-05	0.00075	0.00095	5e-05	0.00075	0.00105	5e-05	0.00075	0.00115	5e-05	0.00075	0.00125	5e-05	0.00075	0.00135	5e-05	0.00075	0.00145	5e-05	0.00085	5e-05	5e-05	0.00085	0.00015	5e-05	0.00085	0.00025	5e-05	0.00085	0.00035	5e-05	0.00085	0.00045	5e-05	0.00085	0.00055	5e-05	0.00085	0.00065	5e-05	0.00085	0.00075	5e-05	0.00085	0.00085	5e-05	0.00085	0.00095	5e-05	0.00085	0.00105	5e-05	0.00085	0.00115	5e-05	0.00085	0.00125	5e-05	0.00085	0.00135	5e-05	0.00085	0.00145	5e-05	0.00095	5e-05	5e-05	0.00095	0.00015	5e-05	0.00095	0.00025	5e-05	0.00095	0.00035	5e-05	0.00095	0.00045	5e-05	0.00095	0.00055	5e-05	0.00095	0.00065	5e-05	0.00095	0.00075	5e-05	0.00095	0.00085	5e-05	0.00095	0.00095	5e-05	0.00095	0.00105	5e-05	0.00095	0.00115	5e-05	0.00095	0.00125	5e-05	0.00095	0.00135	5e-05	0.00095	0.00145	5e-05	0.00105	5e-05	5e-05	0.00105	0.00015	5e-05	0.00105	0.00025	5e-05	0.00105	0.00035	5e-05	0.00105	0.00045	5e-05	0.00105	0.00055	5e-05	0.00105	0.00065	5e-05	0.00105	0.00075	5e-05	0.00105	0.00085	5e-05	0.00105	0.00095	5e-05	0.00105	0.00105	5e-05	0.00105	0.00115	5e-05	0.00105	0.00125	5e-05	0.00105	0.00135	5e-05	0.00105	0.00145	5e-05	0.00115	5e-05	5e-05	0.00115	0.00015	5e-05	0.00115	0.00025	5e-05	0.00115	0.00035	5e-05	0.00115	0.00045	5e-05	0.00115	0.00055	5e-05	0.00115	0.00065	5e-05	0.00115	0.00075	5e-05	0.00115	0.00085	5e-05	0.00115	0.00095	5e-05	0.00115	0.00105	5e-05	0.00115	0.00115	5e-05	0.00115	0.00125	5e-05	0.00115	0.00135	5e-05	0.00115	0.00145	5e-05	0.00125	5e-05	5e-05	0.00125	0.00015	5e-05	0.00125	0.00025	5e-05	0.00125	0.00035	5e-05	0.00125	0.00045	5e-05	0.00125	0.00055	5e-05	0.00125	0.00065	5e-05	0.00125	0.00075	5e-05	0.00125	0.00085	5e-05	0.00125	0.00095	5e-05	0.00125	0.00105	5e-05	0.00125	0.00115	5e-05	0.00125	0.00125	5e-05	0.00125	0.00135	5e-05	0.00125	0.00145	5e-05	0.00135	5e-05	5e-05	0.00135	0.00015	5e-05	0.00135	0.00025	5e-05	0.00135	0.00035	5e-05	0.00135	0.00045	5e-05	0.00135	0.00055	5e-05	0.00135	0.00065	5e-05	0.00135	0.00075	5e-05	0.00135	0.00085	5e-05	0.00135	0.00095	5e-05	0.00135	0.00105	5e-05	0.00135	0.00115	5e-05	0.00135	0.00125	5e-05	0.00135	0.00135	5e-05	0.00135	0.00145	5e-05	0.00145	5e-05	5e-05	0.00145	0.00015	5e-05	0.00145	0.00025	5e-05	0.00145	0.00035	5e-05	0.00145	0.00045	5e-05	0.00145	0.00055	5e-05	0.00145	0.00065	5e-05	0.00145	0.00075	5e-05	0.00145	0.00085	5e-05	0.00145	0.00095	5e-05	0.00145	0.00105	5e-05	0.00145	0.00115	5e-05	0.00145	0.00125	5e-05	0.00145	0.00135	5e-05	0.00145	0.00145	0.00015	5e-05	5e-05	0.00015	5e-05	0.00015	0.00015	5e-05	0.00025	0.00015	5e-05	0.00035	0.00015	5e-05	0.00045	0.00015	5e-05	0.00055	0.00015	5e-05	0.00065	0.00015	5e-05	0.00075	0.00015	5e-05	0.00085	0.00015	5e-05	0.00095	0.00015	5e-05	0.00105	0.00015	5e-05	0.00115	0.00015	5e-05	0.00125	0.00015	5e-05	0.00135	0.00015	5e-05	0.00145	0.00015	0.00015	5e-05	0.00015	0.00015	0.00015	0.00015	0.00015	0.00025	0.00015	0.00015	0.00035	0.00015	0.00015	0.00045	0.00015	0.00015	0.00055	0.00015	0.00015	0.00065	0.00015	0.00015	0.00075	0.00015	0.00015	0.00085	0.00015	0.00015	0.00095	0.00015	0.00015	0.00105	0.00015	0.00015	0.00115	0.00015	0.00015	0.00125	0.00015	0.00015	0.00135	0.00015	0.00015	0.00145	0.00015	0.00025	5e-05	0.00015	0.00025	0.00015	0.00015	0.00025	0.00025	0.00015	0.00025	0.00035	0.00015	0.00025	0.00045	0.00015	0.00025	0.00055	0.00015	0.00025	0.00065	0.00015	0.00025	0.00075	0.00015	0.00025	0.00085	0.00015	0.00025	0.00095	0.00015	0.00025	0.00105	0.00015	0.00025	0.00115	0.00015	0.00025	0.00125	0.00015	0.00025	0.00135	0.00015	0.00025	0.00145	0.00015	0.00035	5e-05	0.00015	0.00035	0.00015	0.00015	0.00035	0.00025	0.00015	0.00035	0.00035	0.00015	0.00035	0.00045	0.00015	0.00035	0.00055	0.00015	0.00035	0.00065	0.00015	0.00035	0.00075	0.00015	0.00035	0.00085	0.00015	0.00035	0.00095	0.00015	0.00035	0.00105	0.00015	0.00035	0.00115	0.00015	0.00035	0.00125	0.00015	0.00035	0.00135	0.00015	0.00035	0.00145	0.00015	0.00045	5e-05	0.00015	0.00045	0.00015	0.00015	0.00045	0.00025	0.00015	0.00045	0.00035	0.00015	0.00045	0.00045	0.00015	0.00045	0.00055	0.00015	0.00045	0.00065	0.00015	0.00045	0.00075	0.00015	0.00045	0.00085	0.00015	0.00045	0.00095	0.00015	0.00045	0.00105	0.00015	0.00045	0.00115	0.00015	0.00045	0.00125	0.00015	0.00045	0.00135	0.00015	0.00045	0.00145	0.00015	0.00055	5e-05	0.00015	0.00055	0.00015	0.00015	0.00055	0.00025	0.00015	0.00055	0.00035	0.00015	0.00055	0.00045	0.00015	0.00055	0.00055	0.00015	0.00055	0.00065	0.00015	0.00055	0.00075	0.00015	0.00055	0.00085	0.00015	0.00055	0.00095	0.00015	0.00055	0.00105	0.00015	0.00055	0.00115	0.00015	0.00055	0.00125	0.00015	0.00055	0.00135	0.00015	0.00055	0.00145	0.00015	0.00065	5e-05	0.00015	0.00065	0.00015	0.00015	0.00065	0.00025	0.00015	0.00065	0.00035	0.00015	0.00065	0.00045	0.00015	0.00065	0.00055	0.00015	0.00065	0.00065	0.00015	0.00065	0.00075	0.00015	0.00065	0.00085	0.00015	0.00065	0.00095	0.00015	0.00065	0.00105	0.00015	0.00065	0.00115	0.00015	0.00065	0.00125	0.00015	0.00065	0.00135	0.00015	0.00065	0.00145	0.00015	0.00075	5e-05	0.00015	0.00075	0.00015	0.00015	0.00075	0.00025	0.00015	0.00075	0.00035	0.00015	0.00075	0.00045	0.00015	0.00075	0.00055	0.00015	0.00075	0.00065	0.00015	0.00075	0.00075	0.00015	0.00075	0.00085	0.00015	0.00075	0.00095	0.00015	0.00075	0.00105	0.00015	0.00075	0.00115	0.00015	0.00075	0.00125	0.00015	0.00075	0.00135	0.00015	0.00075	0.00145	0.00015	0.00085	5e-05	0.00015	0.00085	0.00015	0.00015	0.00085	0.00025	0.00015	0.00085	0.00035	0.00015	0.00085	0.00045	0.00015	0.00085	0.00055	0.00015	0.00085	0.00065	0.00015	0.00085	0.00075	0.00015	0.00085	0.00085	0.00015	0.00085	0.00095	0.00015	0.00085	0.00105	0.00015	0.00085	0.00115	0.00015	0.00085	0.00125	0.00015	0.00085	0.00135	0.00015	0.00085	0.00145	0.00015	0.00095	5e-05	0.00015	0.00095	0.00015	0.00015	0.00095	0.00025	0.00015	0.00095	0.00035	0.00015	0.00095	0.00045	0.00015	0.00095	0.00055	0.00015	0.00095	0.00065	0.00015	0.00095	0.00075	0.00015	0.00095	0.00085	0.00015	0.00095	0.00095	0.00015	0.00095	0.00105	0.00015	0.00095	0.00115	0.00015	0.00095	0.00125	0.00015	0.00095	0.00135	0.00015	0.00095	0.00145	0.00015	0.00105	5e-05	0.00015	0.00105	0.00015	0.00015	0.00105	0.00025	0.00015	0.00105	0.00035	0.00015	0.00105	0.00045	0.00015	0.00105	0.00055	0.00015	0.00105	0.00065	0.00015	0.00105	0.00075	0.00015	0.00105	0.00085	0.00015	0.00105	0.00095	0.00015	0.00105	0.00105	0.00015	0.00105	0.00115	0.00015	0.00105	0.00125	0.00015	0.00105	0.00135	0.00015	0.00105	0.00145	0.00015	0.00115	5e-05	0.00015	0.00115	0.00015	0.00015	0.00115	0.00025	0.00015	0.00115	0.00035	0.00015	0.00115	0.00045	0.00015	0.00115	0.00055	0.00015	0.00115	0.00065	0.00015	0.00115	0.00075	0.00015	0.00115	0.00085	0.00015	0.00115	0.00095	0.00015	0.00115	0.00105	0.00015	0.00115	0.00115	0.00015	0.00115	0.00125	0.00015	0.00115	0.00135	0.00015	0.00115	0.00145	0.00015	0.00125	5e-05	0.00015	0.00125	0.00015	0.00015	0.00125	0.00025	0.00015	0.00125	0.00035	0.00015	0.00125	0.00045	0.00015	0.00125	0.00055	0.00015	0.00125	0.00065	0.00015	0.00125	0.00075	0.00015	0.00125	0.00085	0.00015	0.00125	0.00095	0.00015	0.00125	0.00105	0.00015	0.00125	0.00115	0.00015	0.00125	0.00125	0.00015	0.00125	0.00135	0.00015	0.00125	0.00145	0.00015	0.00135	5e-05	0.00015	0.00135	0.00015	0.00015	0.00135	0.00025	0.00015	0.00135	0.00035	0.00015	0.00135	0.00045	0.00015	0.00135	0.00055	0.00015	0.00135	0.00065	0.00015	0.00135	0.00075	0.00015	0.00135	0.00085	0.00015	0.00135	0.00
[...]
                <PointData>
                <DataArray Name="phase001|pore.all" NumberOfComponents="1" type="Int32">1	1	1	1	1	1	1	1	1	1	1	1	1	1	1	1	1	1	1	1	1	1	1	1	1	1	1	1	1	1	1	1	1	1	1	1	1	1	1	1	1	1	1	1	1	1	1	1	1	1	1	1	1	1	1	1	1	1	1	1	1	1	1	1	1	1	1	1	1	1	1	1	1	1	1	1	1	1	1	1	1	1	1	1	1	1	1	1	1	1	1	1	1	1	1	1	1	1	1	1	1	1	1	1	1	1	1	1	1	1	1	1	1	1	1	1	1	1	1	1	1	1	1	1	1	1	1	1	1	1	1	1	1	1	1	1	1	1	1	1	1	1	1	1	1	1	1	1	1	1	1	1	1	1	1	1	1	1	1	1	1	1	1	1	1	1	1	1	1	1	1	1	1	1	1	1	1	1	1	1	1	1	1	1	1	1	1	1	1	1	1	1	1	1	1	1	1	1	1	1	1	1	1	1	1	1	1	1	1	1	1	1	1	1	1	1	1	1	1	1	1	1	1	1	1	1	1	1	1	1	1	1	1	1	1	1	1	1	1	1	1	1	1	1	1	1	1	1	1	1	1	1	1	1	1	1	1	1	1	1	1	1	1	1	1	1	1	1	1	1	1	1	1	1	1	1	1	1	1	1	1	1	1	1	1	1	1	1	1	1	1	1	1	1	1	1	1	1	1	1	1	1	1	1	1	1	1	1	1	1	1	1	1	1	1	1	1	1	1	1	1	1	1	1	1	1	1	1	1	1	1	1	1	1	1	1	1	1	1	1	1	1	1	1	1	1	1	1	1	1	1	1	1	1	1	1	1	1	1	1	1	1	1	1	1	1	1	1	1	1	1	1	1	1	1	1	1	1	1	1	1	1	1	1	1	1	1	1	1	1	1	1	1	1	1	1	1	1	1	1	1	1	1	1	1	1	1	1	1	1	1	1	1	1	1	1	1	1	1	1	1	1	1	1	1	1	1	1	1	1	1	1	1	1	1	1	1	1	1	1	1	1	1	1	1	1	1	1	1	1	1	1	1	1	1	1	1	1	1	1	1	1	1	1	1	1	1	1	1	1	1	1	1	1	1	1	1	1	1	1	1	1	1	1	1	1	1	1	1	1	1	1	1	1	1	1	1	1	1	1	1	1	1	1	1	1	1	1	1	1	1	1	1	1	1	1	1	1	1	1	1	1	1	1	1	1	1	1	1	1	1	1	1	1	1	1	1	1	1	1	1	1	1	1	1	1	1	1	1	1	1	1	1	1	1	1	1	1	1	1	1	1	1	1	1	1	1	1	1	1	1	1	1	1	1	1	1	1	1	1	1	1	1	1	1	1	1	1	1	1	1	1	1	1	1	1	1	1	1	1	1	1	1	1	1	1	1	1	1	1	1	1	1	1	1	1	1	1	1	1	1	1	1	1	1	1	1	1	1	1	1	1	1	1	1	1	1	1	1	1	1	1	1	1	1	1	1	1	1	1	1	1	1	1	1	1	1	1	1	1	1	1	1	1	1	1	1	1	1	1	1	1	1	1	1	1	1	1	1	1	1	1	1	1	1	1	1	1	1	1	1	1	1	1	1	1	1	1	1	1	1	1	1	1	1	1	1	1	1	1	1	1	1	1	1	1	1	1	1	1	1	1	1	1	1	1	1	1	1	1	1	1	1	1	1	1	1	1	1	1	1	1	1	1	1	1	1	1	1	1	1	1	1	1	1	1	1	1	1	1	1	1	1	1	1	1	1	1	1	1	1	1	1	1	1	1	1	1	1	1	1	1	1	1	1	1	1	1	1	1	1	1	1	1	1	1	1	1	1	1	1	1	1	1	1	1	1	1	1	1	1	1	1	1	1	1	1	1	1	1	1	1	1	1	1	1	1	1	1	1	1	1	1	1	1	1	1	1	1	1	1	1	1	1	1	1	1	1	1	1	1	1	1	1	1	1	1	1	1	1	1	1	1	1	1	1	1	1	1	1	1	1	1	1	1	1	1	1	1	1	1	1	1	1	1	1	1	1	1	1	1	1	1	1	1	1	1	1	1	1	1	1	1	1	1	1	1	1	1	1	1	1	1	1	1	1	1	1	1	1	1	1	1	1	1	1	1	1	1	1	1	1	1	1	1	1	1	1	1	1	1	1	1	1	1	1	1	1	1	1	1	1	1	1	1	1	1	1	1	1	1	1	1	1	1	1	1	1	1	1	1	1	1	1	1	1	1	1	1	1	1	1	1	1	1	1	1	1	1	1	1	1	1	1	1	1	1	1	1	1	1	1	1	1	1	1	1	1	1	1	1	1	1	1	1	1	1	1	1	1	1	1	1	1	1	1	1	1	1	1	1	1	1	1	1	1	1	1	1	1	1	1	1	1	1	1	1	1	1	1	1	1	1	1	1	1	1	1	1	1	1	1	1	1	1	1	1	1	1	1	1	1	1	1	1	1	1	1	1	1	1	1	1	1	1	1	1	1	1	1	1	1	1	1	1	1	1	1	1	1	1	1	1	1	1	1	1	1	1	1	1	1	1	1	1	1	1	1	1	1	1	1	1	1	1	1	1	1	1	1	1	1	1	1	1	1	1	1	1	1	1	1	1	1	1	1	1	1	1	1	1	1	1	1	1	1	1	1	1	1	1	1	1	1	1	1	1	1	1	1	1	1	1	1	1	1	1	1	1	1	1	1	1	1	1	1	1	1	1	1	1	1	1	1	1	1	1	1	1	1	1	1	1	1	1	1	1	1	1	1	1	1	1	1	1	1	1	1	1	1	1	1	1	1	1	1	1	1	1	1	1	1	1	1	1	1	1	1	1	1	1	1	1	1	1	1	1	1	1	1	1	1	1	1	1	1	1	1	1	1	1	1	1	1	1	1	1	1	1	1	1	1	1	1	1	1	1	1	1	1	1	1	1	1	1	1	1	1	1	1	1	1	1	1	1	1	1	1	1	1	1	1	1	1	1	1	1	1	1	1	1	1	1	1	1	1	1	1	1	1	1	1	1	1	1	1	1	1	1	1	1	1	1	1	1	1	1	1	1	1	1	1	1	1	1	1	1	1	1	1	1	1	1	1	1	1	1	1	1	1	1	1	1	1	1	1	1	1	1	1	1	1	1	1	1	1	1	1	1	1	1	1	1	1	1	1	1	1	1	1	1	1	1	1	1	1	1	1	1	1	1	1	1	1	1	1	1	1	1	1	1	1	1	1	1	1	1	1	1	1	1	1	1	1	1	1	1	1	1	1	1	1	1	1	1	1	1	1	1	1	1	1	1	1	1	1	1	1	1	1	1	1	1	1	1	1	1	1	1	1	1	1	1	1	1	1	1	1	1	1	1	1	1	1	1	1	1	1	1	1	1	1	1	1	1	1	1	1	1	1	1	1	1	1	1	1	1	1	1	1	1	1	1	1	1	1	1	1	1	1	1	1	1	1	1	1	1	1	1	1	1	1	1	1	1	1	1	1	1	1	1	1	1	1	1	1	1	1	1	1	1	1	1	1	1	1	1	1	1	1	1	1	1	1	1	1	1	1	1	1	1	1	1	1	1	1	1	1	1	1	1	1	1	1	1	1	1	1	1	1	1	1	1	1	1	1	1	1	1	1	1	1	1	1	1	1	1	1	1	1	1	1	1	1	1	1	1	1	1	1	1	1	1	1	1	1	1	1	1	1	1	1	1	1	1	1	1	1	1	1	1	1	1	1	1	1	1	1	1	1	1	1	1	1	1	1	1	1	1	1	1	1	1	1	1	1	1	1	1	1	1	1	1	1	1	1	1	1	1	1	1	1	1	1	1	1	1	1	1	1	1	1	1	1	1	1	1	1	1	1	1	1	1	1	1	1	1	1	1	1	1	1	1	1	1	1	1	1	1	1	1	1	1	1	1	1	1	1	1	1	1	1	1	1	1	1	1	1	1	1	1	1	1	1	1	1	1	1	1	1	1	1	1	1	1	1	1	1	1	1	1	1	1	1	1	1	1	1	1	1	1	1	1	1	1	1	1	1	1	1	1	1	1	1	1	1	1	1	1	1	1	1	1	1	1	1	1	1	1	1	1	1	1	1	1	1	1	1	1	1	1	1	1	1	1	1	1	1	1	1	1	1	1	1	1	1	1	1	1	1	1	1	1	1	1	1	1	1	1	1	1	1	1	1	1	1	1	1	1	1	1	1	1	1	1	1	1	1	1	1	1	1	1	1	1	1	1	1	1	1	1	1	1	1	1	1	1	1	1	1	1	1	1	1	1	1	1	1	1	1	1	1	1	1	1	1	1	1	1	1	1	1	1	1	1	1	1	1	1	1	1	1	1	1	1	1	1	1	1	1	1	1	1	1	1	1	1	1	1	1	1	1	1	1	1	1	1	1	1	1	1	1	1	1	1	1	1	1	1	1	1	1	1	1	1	1	1	1	1	1	1	1	1	1	1	1	1	1	1	1	1	1	1	1	1	1	1	1	1	1	1	1	1	1	1	1	1	1	1	1	1	1	1	1	1	1	1	1	1	1	1	1	1	1	1	1	1	1	1	1	1	1	1	1	1	1	1	1	1	1	1	1	1	1	1	1	1	1	1	1	1	1	1	1	1	1	1	1	1	1	1	1	1	1	1	1	1	1	1	1	1	1	1	1	1	1	1	1	1	1	1	1	1	1	1	1	1	1	1	1	1	1	1	1	1	1	1	1	1	1	1	1	1	1	1	1	1	1	1	1	1	1	1	1	1	1	1	1	1	1	1	1	1	1	1	1	1	1	1	1	1	1	1	1	1	1	1	1	1	1	1	1	1	1	1	1	1	1	1	1	1	1	1	1	1	1	1	1	1	1	1	1	1	1	1	1	1	1	1	1	1	1	1	1	1	1	1	1	1	1	1	1	1	1	1	1	1	1	1	1	1	1	1	1	1	1	1	1	1	1	1	1	1	1	1	1	1	1	1	1	1	1	1	1	1	1	1	1	1	1	1	1	1	1	1	1	1	1	1	1	1	1	1	1	1	1	1	1	1	1	1	1	1	1	1	1	1	1	1	1	1	1	1	1	1	1	1	1	1	1	1	1	1	1	1	1	1	1	1	1	1	1	1	1	1	1	1	1	1	1	1	1	1	1	1	1	1	1	1	1	1	1	1	1	1	1	1	1	1	1	1	1	1	1	1	1	1	1	1	1	1	1	1	1	1	1	1	1	1	1	1	1	1	1	1	1	1	1	1	1	1	1	1	1	1	1	1	1	1	1	1	1	1	1	1	1	1	1	1	1	1	1	1	1	1	1	1	1	1	1	1	1	1	1	1	1	1	1	1	1	1	1	1	1	1	1	1	1	1	1	1	1	1	1	1	1	1	1	1	1	1	1	1	1	1	1	1	1	1	1	1	1	1	1	1	1	1	1	1	1	1	1	1	1	1	1	1	1	1	1	1	1	1	1	1	1	1	1	1	1	1	1	1	1	1	1	1	1	1	1	1	1	1	1	1	1	1	1	1	1	1	1	1	1	1	1	1	1	1	1	1	1	1	1	1	1	1	1	1	1	1	1	1	1	1	1	1	1	1	1	1	1	1	1	1	1	1	1	1	1	1	1	1	1	1	1	1	1	1	1	1	1	1	1	1	1	1	1	1	1	1	1	1	1	1	1	1	1	1	1	1	1	1	1	1	1	1	1	1	1	1	1	1	1	1	1	1	1	1	1	1	1	1	1	1	1	1	1	1	1	1	1	1	1	1	1	1	1	1	1	1	1	1	1	1	1	1	1	1	1	1	1	1	1	1	1	1	1	1	1	1	1	1	1	1	1	1	1	1	1	1	1	1	1	1	1	1	1	1	1	1	1	1	1	1	1	1	1	1	1	1	1	1	1	1	1	1	1	1	1	1	1	1	1	1	1	1	1	1	1	1	1	1	1	1	1	1	1	1	1	1	1	1	1	1	1	1	1	1	1	1	1	1	1	1	1	1	1	1	1	1	1	1	1	1	1	1	1	1	1	1	1	1	1	1	1	1	1	1	1	1	1	1	1	1	1	1	1	1	1	1	1	1	1	1	1	1	1	1	1	1	1	1	1	1	1	1	1	1	1	1	1	1	1	1	1	1	1	1	1	1	1	1	1	1	1	1	1	1	1	1	1	1	1	1	1	1	1	1	1	1	1	1	1	1	1	1	1	1	1	1	1	1	1	1	1	1	1	1	1	1	1	1	1	1	1	1	1	1	1	1	1	1	1	1	1	1	1	1	1	1	1	1	1	1	1	1	1	1	1	1	1	1	1	1	1	1	1	1	1	1	1	1	1	1	1	1	1	1	1	1	1	1	1	1	1	1	1	1	1	1	1	1	1	1	1	1	1	1	1	1	1	1	1	1	1	1	1	1	1	1	1	1	1	1	1	1	1	1	1	1	1	1	1	1	1	1	1	1	1	1	1	1	1	1	1	1	1	1	1	1	1	1	1	1	1	1	1	1	1	1	1	1	1	1	1	1	1	1	1	1	1	1	1	1	1	1	1	1	1	1	1	1	1	1	1	1	1	1	1	1	1	1	1	1	1	1	1	1	1	1	1	1	1	1	1	1	1	1	1	1	1	1	1	1	1	1	1	1	1	1	1	1	1	1	1	1	1	1	1	1	1	1	1	1	1	1	1	1	1	1	1	1	1	1	1	1	1	1	1	1	1	1	1	1	1	1	1	1	1	1	1	1	1	1	1	1	1	1	1	1	1	1	1	1	1	1	1	1	1	1	1	1	1	1	1	1	1	1	1	1	1	1	1	1	1	1	1	1	1	1	1	1	1	1	1	1	1	1	1	1	1	1	1	1	1	1	1	1	1	1	1	1	1	1	1	1	1	1	1	1	1	1	1	1	1	1	1	1	1	1	1	1	1	1	1	1	1	1	1	1	1	1	1	1	1	1	1	1	1	1	1	1	1	1	1	1	1	1	1	1	1	1	1	1	1	1	1	1	1	1	1	1	1	1	1	1	1	1	1	1	1	1	1	1	1	1	1	1	1	1	1	1	1	1	1	1	1	1	1	1	1	1	1	1	1	1	1	1	1	1	1	1	1	1	1	1	1	1	1	1	1	1	1	1	1	1	1	1	1	1	1	1	1	1	1	1	1	1	1	1	1	1	1	1	1	1	1	1	1	1	1	1	1	1	1	1	1	1	1	1	1	1	1	1	1	1	1	1	1	1	1	1	1	1	1	1	1	1	1	1	1	1	1	1	1	1	1	1	1	1	1	1	1	1	1	1	1	1	1	1	1	1	1	1	1	1	1	1	1	1	1	1	1	1	1	1	1	1	1	1	1	1	1	1	1	1	1	1	1	1	1	1	1	1	1	1	1	1	1	1	1	1	1	1	1	1	1	1	1	1	1	1	1	1	1	1	1	1	1	1	1	1	1	1	1	1	1	1	1	1	1	1	1	1	1	1	1	1	1	1	1	1	1	1	1	1	1	1	1	1	1	1	1	1	1	1	1	1	1	1	1	1	1	1	1	1	1	1	1	1	1	1	1	1	1	1	1	1	1	1	1	1	1	1	1	1	1	1	1	1	1	1	1	1	1	1	1	1	1	1	1	1	1	1	1	1	1	1	1	1	1	1	1	1	1	1	1	1	1	1	1	1	1	1	1	1	1	1	1	1	1	1	1	1</DataArray>
			<DataArray Name="phase001|pore.contact_angle" NumberOfComponents="1" type="Float64">110.0	110.0	110.0	110.0	110.0	110.0	110.0	110.0	110.0	110.0	110.0	110.0	110.0	110.0	110.0	110.0	110.0	110.0	110.0	110.0	110.0	110.0	110.0	110.0	110.0	110.0	110.0	110.0	110.0	110.0	110.0	110.0	110.0	110.0	110.0	110.0	110.0	110.0	110.0	110.0	110.0	110.0	110.0	110.0	110.0	110.0	110.0	110.0	110.0	110.0	110.0	110.0	110.0	110.0	110.0	110.0	110.0	110.0	110.0	110.0	110.0	110.0	110.0	110.0	110.0	110.0	110.0	110.0	110.0	110.0	110.0	110.0	110.0	110.0	110.0	110.0	110.0	110.0	110.0	110.0	110.0	110.0	110.0	110.0	110.0	110.0	110.0	110.0	110.0	110.0	110.0	110.0	110.0	110.0	110.0	110.0	110.0	110.0	110.0	110.0	110.0	110.0	110.0	110.0	110.0	110.0	110.0	110.0	110.0	110.0	110.0	110.0	110.0	110.0	110.0	110.0	110.0	110.0	110.0	110.0	110.0	110.0	110.0	110.0	110.0	110.0	110.0	110.0	110.0	110.0	110.0	110.0	110.0	110.0	110.0	110.0	110.0	110.0	110.0	110.0	110.0	110.0	110.0	110.0	110.0	110.0	110.0	110.0	110.0	110.0	110.0	110.0	110.0	110.0	110.0	110.0	110.0	110.0	110.0	110.0	110.0	110.0	110.0	110.0	110.0	110.0	110.0	110.0	110.0	110.0	110.0	110.0	110.0	110.0	110.0	110.0	110.0	110.0	110.0	110.0	110.0	110.0	110.0	110.0	110.0	110.0	110.0	110.0	110.0	110.0	110.0	110.0	110.0	110.0	110.0	110.0	110.0	110.0	110.0	110.0	110.0	110.0	110.0	110.0	110.0	110.0	110.0	110.0	110.0	110.0	110.0	110.0	110.0	110.0	110.0	110.0	110.0	110.0	110.0	110.0	110.0	110.0	110.0	110.0	110.0	110.0	110.0	110.0	110.0	110.0	110.0	110.0	110.0	110.0	110.0	110.0	110.0	110.0	110.0	110.0	110.0	110.0	110.0	110.0	110.0	110.0	110.0	110.0	110.0	110.0	110.0	110.0	110.0	110.0	110.0	110.0	110.0	110.0	110.0	110.0	110.0	110.0	110.0	110.0	110.0	110.0	110.0	110.0	110.0	110.0	110.0	110.0	110.0	110.0	110.0	110.0	110.0	110.0	110.0	110.0	110.0	110.0	110.0	110.0	110.0	110.0	110.0	110.0	110.0	110.0	110.0	110.0	110.0	110.0	110.0	110.0	110.0	110.0	110.0	110.0	110.0	110.0	110.0	110.0	110.0	110.0	110.0	110.0	110.0	110.0	110.0	110.0	110.0	110.0	110.0	110.0	110.0	110.0	110.0	110.0	110.0	110.0	110.0	110.0	110.0	110.0	110.0	110.0	110.0	110.0	110.0	110.0	110.0	110.0	110.0	110.0	110.0	110.0	110.0	110.0	110.0	110.0	110.0	110.0	110.0	110.0	110.0	110.0	110.0	110.0	110.0	110.0	110.0	110.0	110.0	110.0	110.0	110.0	110.0	110.0	110.0	110.0	110.0	110.0	110.0	110.0	110.0	110.0	110.0	110.0	110.0	110.0	110.0	110.0	110.0	110.0	110.0	110.0	110.0	110.0	110.0	110.0	110.0	110.0	110.0	110.0	110.0	110.0	110.0	110.0	110.0	110.0	110.0	110.0	110.0	110.0	110.0	110.0	110.0	110.0	110.0	110.0	110.0	110.0	110.0	110.0	110.0	110.0	110.0	110.0	110.0	110.0	110.0	110.0	110.0	110.0	110.0	110.0	110.0	110.0	110.0	110.0	110.0	110.0	110.0	110.0	110.0	110.0	110.0	110.0	110.0	110.0	110.0	110.0	110.0	110.0	110.0	110.0	110.0	110.0	110.0	110.0	110.0	110.0	110.0	110.0	110.0	110.0	110.0	110.0	110.0	110.0	110.0	110.0	110.0	110.0	110.0	110.0	110.0	110.0	110.0	110.0	110.0	110.0	110.0	110.0	110.0	110.0	110.0	110.0	110.0	110.0	110.0	110.0	110.0	110.0	110.0	110.0	110.0	110.0	110.0	110.0	110.0	110.0	110.0	110.0	110.0	110.0	110.0	110.0	110.0	110.0	110.0	110.0	110.0	110.0	110.0	110.0	110.0	110.0	110.0	110.0	110.0	110.0	110.0	110.0	110.0	110.0	110.0	110.0	110.0	110.0	110.0	110.0	110.0	110.0	110.0	110.0	110.0	110.0	110.0	110.0	110.0	110.0	110.0	110.0	110.0	110.0	110.0	110.0	110.0	110.0	110.0	110.0	110.0	110.0	110.0	110.0	110.0	110.0	110.0	110.0	110.0	110.0	110.0	110.0	110.0	110.0	110.0	110.0	110.0	110.0	110.0	110.0	110.0	110.0	110.0	110.0	110.0	110.0	110.0	110.0	110.0	110.0	110.0	110.0	110.0	110.0	110.0	110.0	110.0	110.0	110.0	110.0	110.0	110.0	110.0	110.0	110.0	110.0	110.0	110.0	110.0	110.0	110.0	110.0	110.0	110.0	110.0	110.0	110.0	110.0	110.0	110.0	110.0	110.0	110.0	110.0	110.0	110.0	110.0	110.0	110.0	110.0	110.0	110.0	110.0	110.0	110.0	110.0	110.0	110.0	110.0	110.0	110.0	110.0	110.0	110.0	110.0	110.0	110.0	110.0	110.0	110.0	110.0	110.0	110.0	110.0	110.0	110.0	110.0	110.0	110.0	110.0	110.0	110.0	110.0	110.0	110.0	110.0	110.0	110.0	110.0	110.0	110.0	110.0	110.0	110.0	110.0	110.0	110.0	110.0	110.0	110.0	110.0	110.0	110.0	110.0	110.0	110.0	110.0	110.0	110.0	110.0	110.0	110.0	110.0	110.0	110.0	110.0	110.0	110.0	110.0	110.0	110.0	110.0	110.0	110.0	110.0	110.0	110.0	110.0	110.0	110.0	110.0	110.0	110.0	110.0	110.0	110.0	110.0	110.0	110.0	110.0	110.0	110.0	110.0	110.0	110.0	110.0	110.0	110.0	110.0	110.0	110.0	110.0	110.0	110.0	110.0	110.0	110.0	110.0	110.0	110.0	110.0	110.0	110.0	110.0	110.0	110.0	110.0	110.0	110.0	110.0	110.0	110.0	110.0	110.0	110.0	110.0	110.0	110.0	110.0	110.0	110.0	110.0	110.0	110.0	110.0	110.0	110.0	110.0	110.0	110.0	110.0	110.0	110.0	110.0	110.0	110.0	110.0	110.0	110.0	110.0	110.0	110.0	110.0	110.0	110.0	110.0	110.0	110.0	110.0	110.0	110.0	110.0	110.0	110.0	110.0	110.0	110.0	110.0	110.0	110.0	110.0	110.0	110.0	110.0	110.0	110.0	110.0	110.0	110.0	110.0	110.0	110.0	110.0	110.0	110.0	110.0	110.0	110.0	110.0	110.0	110.0	110.0	110.0	110.0	110.0	110.0	110.0	110.0	110.0	110.0	110.0	110.0	110.0	110.0	110.0	110.0	110.0	110.0	110.0	110.0	110.0	110.0	110.0	110.0	110.0	110.0	110.0	110.0	110.0	110.0	110.0	110.0	110.0	110.0	110.0	110.0	110.0	110.0	110.0	110.0	110.0	110.0	110.0	110.0	110.0	110.0	110.0	110.0	110.0	110.0	110.0	110.0	110.0	110.0	110.0	110.0	110.0	110.0	110.0	110.0	110.0	110.0	110.0	110.0	110.0	110.0	110.0	110.0	110.0	110.0	110.0	110.0	110.0	110.0	110.0	110.0	110.0	110.0	110.0	110.0	110.0	110.0	110.0	110.0	110.0	110.0	110.0	110.0	110.0	110.0	110.0	110.0	110.0	110.0	110.0	110.0	110.0	110.0	110.0	110.0	110.0	110.0	110.0	110.0	110.0	110.0	110.0	110.0	110.0	110.0	110.0	110.0	110.0	110.0	110.0	110.0	110.0	110.0	110.0	110.0	110.0	110.0	110.0	110.0	110.0	110.0	110.0	110.0	110.0	110.0	110.0	110.0	110.0	110.0	110.0	110.0	110.0	110.0	110.0	110.0	110.0	110.0	110.0	110.0	110.0	110.0	110.0	110.0	110.0	110.0	110.0	110.0	110.0	110.0	110.0	110.0	110.0	110.0	110.0	110.0	110.0	110.0	110.0	110.0	110.0	110.0	110.0	110.0	110.0	110.0	110.0	110.0	110.0	110.0	110.0	110.0	110.0	110.0	110.0	110.0	110.0	110.0	110.0	110.0	110.0	110.0	110.0	110.0	110.0	110.0	110.0	110.0	110.0	110.0	110.0	110.0	110.0	110.0	110.0	110.0	110.0	110.0	110.0	110.0	110.0	110.0	110.0	110.0	110.0	110.0	110.0	110.0	110.0	110.0	110.0	110.0	110.0	110.0	110.0	110.0	110.0	110.0	110.0	110.0	110.0	110.0	110.0	110.0	110.0	110.0	110.0	110.0	110.0	110.0	110.0	110.0	110.0	110.0	110.0	110.0	110.0	110.0	110.0	110.0	110.0	110.0	110.0	110.0	110.0	110.0	110.0	110.0	110.0	110.0	110.0	110.0	110.0	110.0	110.0	110.0	110.0	110.0	110.0	110.0	110.0	110.0	110.0	110.0	110.0	110.0	110.0	110.0	110.0	110.0	110.0	110.0	110.0	110.0	110.0	110.0	110.0	110.0	110.0	110.0	110.0	110.0	110.0	110.0	110.0	110.0	110.0	110.0	110.0	110.0	110.0	110.0	110.0	110.0	110.0	110.0	110.0	110.0	110.0	110.0	110.0	110.0	110.0	110.0	110.0	110.0	110.0	110.0	110.0	110.0	110.0	110.0	110.0	110.0	110.0	110.0	110.0	110.0	110.0	110.0	110.0	110.0	110.0	110.0	110.0	110.0	110.0	110.0	110.0	110.0	110.0	110.0	110.0	110.0	110.0	110.0	110.0	110.0	110.0	110.0	110.0	110.0	110.0	110.0	110.0	110.0	110.0	110.0	110.0	110.0	110.0	110.0	110.0	110.0	110.0	110.0	110.0	110.0	110.0	110.0	110.0	110.0	110.0	110.0	110.0	110.0	110.0	110.0	110.0	110.0	110.0	110.0	110.0	110.0	110.0	110.0	110.0	110.0	110.0	110.0	110.0	110.0	110.0	110.0	110.0	110.0	110.0	110.0	110.0	110.0	110.0	110.0	110.0	110.0	110.0	110.0	110.0	110.0	110.0	110.0	110.0	110.0	110.0	110.0	110.0	110.0	110.0	110.0	110.0	110.0	110.0	110.0	110.0	110.0	110.0	110.0	110.0	110.0	110.0	110.0	110.0	110.0	110.0	110.0	110.0	110.0	110.0	110.0	110.0	110.0	110.0	110.0	110.0	110.0	110.0	110.0	110.0	110.0	110.0	110.0	110.0	110.0	110.0	110.0	110.0	110.0	110.0	110.0	110.0	110.0	110.0	110.0	110.0	110.0	110.0	110.0	110.0	110.0	110.0	110.0	110.0	110.0	110.0	110.0	110.0	110.0	110.0	110.0	110.0	110.0	110.0	110.0	110.0	110.0	110.0	110.0	110.0	110.0	110.0	110.0	110.0	110.0	110.0	110.0	110.0	110.0	110.0	110.0	110.0	110.0	110.0	110.0	110.0	110.0	110.0	110.0	110.0	110.0	110.0	110.0	110.0	110.0	110.0	110.0	110.0	110.0	110.0	110.0	110.0	110.0	110.0	110.0	110.0	110.0	110.0	110.0	110.0	110.0	110.0	110.0	110.0	110.0	110.0	110.0	110.0	110.0	110.0	110.0	110.0	110.0	110.0	110.0	110.0	110.0	110.0	110.0	110.0	110.0	110.0	110.0	110.0	110.0	110.0	110.0	110.0	110.0	110.0	110.0	110.0	110.0	110.0	110.0	110.0	110.0	110.0	110.0	110.0	110.0	110.0	110.0	110.0	110.0	110.0	110.0	110.0	110.0	110.0	110.0	110.0	110.0	110.0	110.0	110.0	110.0	110.0	110.0	110.0	110.0	110.0	110.0	110.0	110.0	110.0	110.0	110.0	110.0	110.0	110.0	110.0	110.0	110.0	110.0	110.0	110.0	110.0	110.0	110.0	110.0	110.0	110.0	110.0	110.0	110.0	110.0	110.0	110.0	110.0	110.0	110.0	110.0	110.0	110.0	110.0	110.0	110.0	110.0	110.0	110.0	110.0	110.0	110.0	110.0	110.0	110.0	110.0	110.0	110.0	110.0	110.0	110.0	110.0	110.0	110.0	110.0	110.0	110.0	110.0	110.0	110.0	110.0	110.0	110.0	110.0	110.0	110.0	110.0	110.0	110.0	110.0	110.0	110.0	110.0	110.0	110.0	110.0	110.0	110.0	110.0	110.0	110.0	110.0	110.0	110.0	110.0	110.0	110.0	110.0	110.0	110.0	110.0	110.0	110.0	110.0	110.0	110.0	110.0	110.0	110.0	110.0	110.0	110.0	110.0	110.0	110.0	110.0	110.0	110.0	110.0	110.0	110.0	110.0	110.0	110.0	110.0	110.0	110.0	110.0	110.0	110.0	110.0	110.0	110.0	110.0	110.0	110.0	110.0	110.0	110.0	110.0	110.0	110.0	110.0	110.0	110.0	110.0	110.0	110.0	110.0	110.0	110.0	110.0	110.0	110.0	110.0	110.0	110.0	110.0	110.0	110.0	110.0	110.0	110.0	110.0	110.0	110.0	110.0	110.0	110.0	110.0	110.0	110.0	110.0	110.0	110.0	110.0	110.0	110.0	110.0	110.0	110.0	110.0	110.0	110.0	110.0	110.0	110.0	110.0	110.0	110.0	110.0	110.0	110.0	110.0	110.0	110.0	110.0	110.0	110.0	110.0	110.0	110.0	110.0	110.0	110.0	110.0	110.0	110.0	110.0	110.0	110.0	110.0	110.0	110.0	110.0	110.0	110.0	110.0	110.0	110.0	110.0	110.0	110.0	110.0	110.0	110.0	110.0	110.0	110.0	110.0	110.0	110.0	110.0	110.0	110.0	110.0	110.0	110.0	110.0	110.0	110.0	110.0	110.0	110.0	110.0	110.0	110.0	110.0	110.0	110.0	110.0	110.0	110.0	110.0	110.0	110.0	110.0	110.0	110.0	110.0	110.0	110.0	110.0	110.0	110.0	110.0	110.0	110.0	110.0	110.0	110.0	110.0	110.0	110.0	110.0	110.0	110.0	110.0	110.0	110.0	110.0	110.0	110.0	110.0	110.0	110.0	110.0	110.0	110.0	110.0	110.0	110.0	110.0	110.0	110.0	110.0	110.0	110.0	110.0	110.0	110.0	110.0	110.0	110.0	110.0	110.0	110.0	110.0	110.0	110.0	110.0	110.0	110.0	110.0	110.0	110.0	110.0	110.0	110.0	110.0	110.0	110.0	110.0	110.0	110.0	110.0	110.0	110.0	110.0	110.0	110.0	110.0	110.0	110.0	110.0	110.0	110.0	110.0	110.0	110.0	110.0	110.0	110.0	110.0	110.0	110.0	110.0	110.0	110.0	110.0	110.0	110.0	110.0	110.0	110.0	110.0	110.0	110.0	110.0	110.0	110.0	110.0	110.0	110.0	110.0	110.0	110.0	110.0	110.0	110.0	110.0	110.0	110.0	110.0	110.0	110.0	110.0	110.0	110.0	110.0	110.0	110.0	110.0	110.0	110.0	110.0	110.0	110.0	110.0	110.0	110.0	110.0	110.0	110.0	110.0	110.0	110.0	110.0	110.0	110.0	110.0	110.0	110.0	110.0	110.0	110.0	110.0	110.0	110.0	110.0	110.0	110.0	110.0	110.0	110.0	110.0	110.0	110.0	110.0	110.0	110.0	110.0	110.0	110.0	110.0	110.0	110.0	110.0	110.0	110.0	110.0	110.0	110.0	110.0	110.0	110.0	110.0	110.0	110.0	110.0	110.0	110.0	110.0	110.0	110.0	110.0	110.0	110.0	110.0	110.0	110.0	110.0	110.0	110.0	110.0	110.0	110.0	110.0	110.0	110.0	110.0	110.0	110.0	110.0	110.0	110.0	110.0	110.0	110.0	110.0	110.0	110.0	110.0	110.0	110.0	110.0	110.0	110.0	110.0	110.0	110.0	110.0	110.0	110.0	110.0	110.0	110.0	110.0	110.0	110.0	110.0	110.0	110.0	110.0	110.0	110.0	110.0	110.0	110.0	110.0	110.0	110.0	110.0	110.0	110.0	110.0	110.0	110.0	110.0	110.0	110.0	110.0	110.0	110.0	110.0	110.0	110.0	110.0	110.0	110.0	110.0	110.0	110.0	110.0	110.0	110.0	110.0	110.0	110.0	110.0	110.0	110.0	110.0	110.0	110.0	110.0	110.0	110.0	110.0	110.0	110.0	110.0	110.0	110.0	110.0	110.0	110.0	110.0	110.0	110.0	110.0	110.0	110.0	110.0	110.0	110.0	110.0	110.0	110.0	110.0	110.0	110.0	110.0	110.0	110.0	110.0	110.0	110.0	110.0	110.0	110.0	110.0	110.0	110.0	110.0	110.0	110.0	110.0	110.0	110.0	110.0	110.0	110.0	110.0	110.0	110.0	110.0	110.0	110.0	110.0	110.0	110.0	110.0	110.0	110.0	110.0	110.0	110.0	110.0	110.0	110.0	110.0	110.0	110.0	110.0	110.0	110.0	110.0	110.0	110.0	110.0	110.0	110.0	110.0	110.0	110.0	110.0	110.0	110.0	110.0	110.0	110.0	110.0	110.0	110.0	110.0	110.0	110.0	110.0	110.0	110.0	110.0	110.0	110.0	110.0	110.0	110.0	110.0	110.0	110.0	110.0	110.0	110.0	110.0	110.0	110.0	110.0	110.0	110.0	110.0	110.0	110.0	110.0	110.0	110.0	110.0	110.0	110.0	110.0	110.0	110.0	110.0	110.0	110.0	110.0	110.0	110.0	110.0	110.0	110.0	110.0	110.0	110.0	110.0	110.0	110.0	110.0	110.0	110.0	110.0	110.0	110.0	110.0	110.0	110.0	110.0	110.0	110.0	110.0	110.0	110.0	110.0	110.0	110.0	110.0	110.0	110.0	110.0	110.0	110.0	110.0	110.0	110.0	110.0	110.0	110.0	110.0	110.0	110.0	110.0	110.0	110.0	110.0	110.0	110.0	110.0	110.0	110.0	110.0	110.0	110.0	110.0	110.0	110.0	110.0	110.0	110.0	110.0	110.0	110.0	110.0	110.0	110.0	110.0	110.0	110.0	110.0	110.0	110.0	110.0	110.0	110.0	110.0	110.0	110.0	110.0	110.0	110.0	110.0	110.0	110.0	110.0	110.0	110.0	110.0	110.0	110.0	110.0	110.0	110.0	110.0	110.0	110.0	110.0	110.0	110.0	110.0	110.0	110.0	110.0	110.0	110.0	110.0	110.0	110.0	110.0	110.0	110.0	110.0	110.0	110.0	110.0	110.0	110.0	110.0	110.0	110.0	110.0	110.0	110.0	110.0	110.0	110.0	110.0	110.0	110.0	110.0	110.0	110.0	110.0	110.0	110.0	110.0	110.0	110.0	110