<?xml version="1.0"?>
<VTKFile type="PolyData" version="0.1" byte_order="LittleEndian">
<PolyData>
<Piece NumberOfPoints="4000" NumberOfVerts="0" NumberOfLines="10000" NumberOfStrips="0" NumberOfPolys="0">
<Points>
<DataArray type="Float32" NumberOfComponents="3" format="ascii">
2.5e-05 2.5e-05 2.5e-05
7.5e-05 2.5e-05 2.5e-05
0.000125 2.5e-05 2.5e-05
0.000175 2.5e-05 2.5e-05
0.000225 2.5e-05 2.5e-05
0.000275 2.5e-05 2.5e-05
0.000325 2.5e-05 2.5e-05
0.000375 2.5e-05 2.5e-05
0.000425 2.5e-05 2.5e-05
0.000475 2.5e-05 2.5e-05
0.000525 2.5e-05 2.5e-05
0.000575 2.5e-05 2.5e-05
0.000625 2.5e-05 2.5e-05
0.000675 2.5e-05 2.5e-05
0.000725 2.5e-05 2.5e-05
0.000775 2.5e-05 2.5e-05
0.000825 2.5e-05 2.5e-05
0.000875 2.5e-05 2.5e-05
0.000925 2.5e-05 2.5e-05
0.000975 2.5e-05 2.5e-05
2.5e-05 7.5e-05 2.5e-05
7.5e-05 7.5e-05 2.5e-05
0.000125 7.5e-05 2.5e-05
0.000175 7.5e-05 2.5e-05
0.000225 7.5e-05 2.5e-05
0.000275 7.5e-05 2.5e-05
0.000325 7.5e-05 2.5e-05
0.000375 7.5e-05 2.5e-05
0.000425 7.5e-05 2.5e-05
0.000475 7.5e-05 2.5e-05
0.000525 7.5e-05 2.5e-05
0.000575 7.5e-05 2.5e-05
0.000625 7.5e-05 2.5e-05
0.000675 7.5e-05 2.5e-05
0.000725 7.5e-05 2.5e-05
0.000775 7.5e-05 2.5e-05
0.000825 7.5e-05 2.5e-05
0.000875 7.5e-05 2.5e-05
0.000925 7.5e-05 2.5e-05
0.000975 7.5e-05 2.5e-05
2.5e-05 0.000125 2.5e-05
7.5e-05 0.000125 2.5e-05
0.000125 0.000125 2.5e-05
0.000175 0.000125 2.5e-05
0.000225 0.000125 2.5e-05
0.000275 0.000125 2.5e-05
0.000325 0.000125 2.5e-05
0.000375 0.000125 2.5e-05
0.000425 0.000125 2.5e-05
0.000475 0.000125 2.5e-05
0.000525 0.000125 2.5e-05
0.000575 0.000125 2.5e-05
0.000625 0.000125 2.5e-05
0.000675 0.000125 2.5e-05
0.000725 0.000125 2.5e-05
0.000775 0.000125 2.5e-05
0.000825 0.000125 2.5e-05
0.000875 0.000125 2.5e-05
0.000925 0.000125 2.5e-05
0.000975 0.000125 2.5e-05
2.5e-05 0.000175 2.5e-05
7.5e-05 0.000175 2.5e-05
0.000125 0.000175 2.5e-05
0.000175 0.000175 2.5e-05
0.000225 0.000175 2.5e-05
0.000275 0.000175 2.5e-05
0.000325 0.000175 2.5e-05
0.000375 0.000175 2.5e-05
0.000425 0.000175 2.5e-05
0.000475 0.000175 2.5e-05
0.000525 0.000175 2.5e-05
0.000575 0.000175 2.5e-05
0.000625 0.000175 2.5e-05
0.000675 0.000175 2.5e-05
0.000725 0.000175 2.5e-05
0.000775 0.000175 2.5e-05
0.000825 0.000175 2.5e-05
0.000875 0.000175 2.5e-05
0.000925 0.000175 2.5e-05
0.000975 0.000175 2.5e-05
2.5e-05 0.000225 2.5e-05
7.5e-05 0.000225 2.5e-05
0.000125 0.000225 2.5e-05
0.000175 0.000225 2.5e-05
0.000225 0.000225 2.5e-05
0.000275 0.000225 2.5e-05
0.000325 0.000225 2.5e-05
0.000375 0.000225 2.5e-05
0.000425 0.000225 2.5e-05
0.000475 0.000225 2.5e-05
0.000525 0.000225 2.5e-05
0.000575 0.000225 2.5e-05
0.000625 0.000225 2.5e-05
0.000675 0.000225 2.5e-05
0.000725 0.000225 2.5e-05
0.000775 0.000225 2.5e-05
0.000825 0.000225 2.5e-05
0.000875 0.000225 2.5e-05
0.000925 0.000225 2.5e-05
0.000975 0.000225 2.5e-05
2.5e-05 0.000275 2.5e-05
7.5e-05 0.000275 2.5e-05
0.000125 0.000275 2.5e-05
0.000175 0.000275 2.5e-05
0.000225 0.000275 2.5e-05
0.000275 0.000275 2.5e-05
0.000325 0.000275 2.5e-05
0.000375 0.000275 2.5e-05
0.000425 0.000275 2.5e-05
0.000475 0.000275 2.5e-05
0.000525 0.000275 2.5e-05
0.000575 0.000275 2.5e-05
0.000625 0.000275 2.5e-05
0.000675 0.000275 2.5e-05
0.000725 0.000275 2.5e-05
0.000775 0.000275 2.5e-05
0.000825 0.000275 2.5e-05
0.000875 0.000275 2.5e-05
0.000925 0.000275 2.5e-05
0.000975 0.000275 2.5e-05
2.5e-05 0.000325 2.5e-05
7.5e-05 0.000325 2.5e-05
0.000125 0.000325 2.5e-05
0.000175 0.000325 2.5e-05
0.000225 0.000325 2.5e-05
0.000275 0.000325 2.5e-05
0.000325 0.000325 2.5e-05
0.000375 0.000325 2.5e-05
0.000425 0.000325 2.5e-05
0.000475 0.000325 2.5e-05
0.000525 0.000325 2.5e-05
0.000575 0.000325 2.5e-05
0.000625 0.000325 2.5e-05
0.000675 0.000325 2.5e-05
0.000725 0.000325 2.5e-05
0.000775 0.000325 2.5e-05
0.000825 0.000325 2.5e-05
0.000875 0.000325 2.5e-05
0.000925 0.000325 2.5e-05
0.000975 0.000325 2.5e-05
2.5e-05 0.000375 2.5e-05
7.5e-05 0.000375 2.5e-05
0.000125 0.000375 2.5e-05
0.000175 0.000375 2.5e-05
0.000225 0.000375 2.5e-05
0.000275 0.000375 2.5e-05
0.000325 0.000375 2.5e-05
0.000375 0.000375 2.5e-05
0.000425 0.000375 2.5e-05
0.000475 0.000375 2.5e-05
0.000525 0.000375 2.5e-05
0.000575 0.000375 2.5e-05
0.000625 0.000375 2.5e-05
0.000675 0.000375 2.5e-05
0.000725 0.000375 2.5e-05
0.000775 0.000375 2.5e-05
0.000825 0.000375 2.5e-05
0.000875 0.000375 2.5e-05
0.000925 0.000375 2.5e-05
0.000975 0.000375 2.5e-05
2.5e-05 0.000425 2.5e-05
7.5e-05 0.000425 2.5e-05
0.000125 0.000425 2.5e-05
0.000175 0.000425 2.5e-05
0.000225 0.000425 2.5e-05
0.000275 0.000425 2.5e-05
0.000325 0.000425 2.5e-05
0.000375 0.000425 2.5e-05
0.000425 0.000425 2.5e-05
0.000475 0.000425 2.5e-05
0.000525 0.000425 2.5e-05
0.000575 0.000425 2.5e-05
0.000625 0.000425 2.5e-05
0.000675 0.000425 2.5e-05
0.000725 0.000425 2.5e-05
0.000775 0.000425 2.5e-05
0.000825 0.000425 2.5e-05
0.000875 0.000425 2.5e-05
0.000925 0.000425 2.5e-05
0.000975 0.000425 2.5e-05
2.5e-05 0.000475 2.5e-05
7.5e-05 0.000475 2.5e-05
0.000125 0.000475 2.5e-05
0.000175 0.000475 2.5e-05
0.000225 0.000475 2.5e-05
0.000275 0.000475 2.5e-05
0.000325 0.000475 2.5e-05
0.000375 0.000475 2.5e-05
0.000425 0.000475 2.5e-05
0.000475 0.000475 2.5e-05
0.000525 0.000475 2.5e-05
0.000575 0.000475 2.5e-05
0.000625 0.000475 2.5e-05
0.000675 0.000475 2.5e-05
0.000725 0.000475 2.5e-05
0.000775 0.000475 2.5e-05
0.000825 0.000475 2.5e-05
0.000875 0.000475 2.5e-05
0.000925 0.000475 2.5e-05
0.000975 0.000475 2.5e-05
2.5e-05 0.000525 2.5e-05
7.5e-05 0.000525 2.5e-05
0.000125 0.000525 2.5e-05
0.000175 0.000525 2.5e-05
0.000225 0.000525 2.5e-05
0.000275 0.000525 2.5e-05
0.000325 0.000525 2.5e-05
0.000375 0.000525 2.5e-05
0.000425 0.000525 2.5e-05
0.000475 0.000525 2.5e-05
0.000525 0.000525 2.5e-05
0.000575 0.000525 2.5e-05
0.000625 0.000525 2.5e-05
0.000675 0.000525 2.5e-05
0.000725 0.000525 2.5e-05
0.000775 0.000525 2.5e-05
0.000825 0.000525 2.5e-05
0.000875 0.000525 2.5e-05
0.000925 0.000525 2.5e-05
0.000975 0.000525 2.5e-05
2.5e-05 0.000575 2.5e-05
7.5e-05 0.000575 2.5e-05
0.000125 0.000575 2.5e-05
0.000175 0.000575 2.5e-05
0.000225 0.000575 2.5e-05
0.000275 0.000575 2.5e-05
0.000325 0.000575 2.5e-05
0.000375 0.000575 2.5e-05
0.000425 0.000575 2.5e-05
0.000475 0.000575 2.5e-05
0.000525 0.000575 2.5e-05
0.000575 0.000575 2.5e-05
0.000625 0.000575 2.5e-05
0.000675 0.000575 2.5e-05
0.000725 0.000575 2.5e-05
0.000775 0.000575 2.5e-05
0.000825 0.000575 2.5e-05
0.000875 0.000575 2.5e-05
0.000925 0.000575 2.5e-05
0.000975 0.000575 2.5e-05
2.5e-05 0.000625 2.5e-05
7.5e-05 0.000625 2.5e-05
0.000125 0.000625 2.5e-05
0.000175 0.000625 2.5e-05
0.000225 0.000625 2.5e-05
0.000275 0.000625 2.5e-05
0.000325 0.000625 2.5e-05
0.000375 0.000625 2.5e-05
0.000425 0.000625 2.5e-05
0.000475 0.000625 2.5e-05
0.000525 0.000625 2.5e-05
0.000575 0.000625 2.5e-05
0.000625 0.000625 2.5e-05
0.000675 0.000625 2.5e-05
0.000725 0.000625 2.5e-05
0.000775 0.000625 2.5e-05
0.000825 0.000625 2.5e-05
0.000875 0.000625 2.5e-05
0.000925 0.000625 2.5e-05
0.000975 0.000625 2.5e-05
2.5e-05 0.000675 2.5e-05
7.5e-05 0.000675 2.5e-05
0.000125 0.000675 2.5e-05
0.000175 0.000675 2.5e-05
0.000225 0.000675 2.5e-05
0.000275 0.000675 2.5e-05
0.000325 0.000675 2.5e-05
0.000375 0.000675 2.5e-05
0.000425 0.000675 2.5e-05
0.000475 0.000675 2.5e-05
0.000525 0.000675 2.5e-05
0.000575 0.000675 2.5e-05
0.000625 0.000675 2.5e-05
0.000675 0.000675 2.5e-05
0.000725 0.000675 2.5e-05
0.000775 0.000675 2.5e-05
0.000825 0.000675 2.5e-05
0.000875 0.000675 2.5e-05
0.000925 0.000675 2.5e-05
0.000975 0.000675 2.5e-05
2.5e-05 0.000725 2.5e-05
7.5e-05 0.000725 2.5e-05
0.000125 0.000725 2.5e-05
0.000175 0.000725 2.5e-05
0.000225 0.000725 2.5e-05
0.000275 0.000725 2.5e-05
0.000325 0.000725 2.5e-05
0.000375 0.000725 2.5e-05
0.000425 0.000725 2.5e-05
0.000475 0.000725 2.5e-05
0.000525 0.000725 2.5e-05
0.000575 0.000725 2.5e-05
0.000625 0.000725 2.5e-05
0.000675 0.000725 2.5e-05
0.000725 0.000725 2.5e-05
0.000775 0.000725 2.5e-05
0.000825 0.000725 2.5e-05
0.000875 0.000725 2.5e-05
0.000925 0.000725 2.5e-05
0.000975 0.000725 2.5e-05
2.5e-05 0.000775 2.5e-05
7.5e-05 0.000775 2.5e-05
0.000125 0.000775 2.5e-05
0.000175 0.000775 2.5e-05
0.000225 0.000775 2.5e-05
0.000275 0.000775 2.5e-05
0.000325 0.000775 2.5e-05
0.000375 0.000775 2.5e-05
0.000425 0.000775 2.5e-05
0.000475 0.000775 2.5e-05
0.000525 0.000775 2.5e-05
0.000575 0.000775 2.5e-05
0.000625 0.000775 2.5e-05
0.000675 0.000775 2.5e-05
0.000725 0.000775 2.5e-05
0.000775 0.000775 2.5e-05
0.000825 0.000775 2.5e-05
0.000875 0.000775 2.5e-05
0.000925 0.000775 2.5e-05
0.000975 0.000775 2.5e-05
2.5e-05 0.000825 2.5e-05
7.5e-05 0.000825 2.5e-05
0.000125 0.000825 2.5e-05
0.000175 0.000825 2.5e-05
0.000225 0.000825 2.5e-05
0.000275 0.000825 2.5e-05
0.000325 0.000825 2.5e-05
0.000375 0.000825 2.5e-05
0.000425 0.000825 2.5e-05
0.000475 0.000825 2.5e-05
0.000525 0.000825 2.5e-05
0.000575 0.000825 2.5e-05
0.000625 0.000825 2.5e-05
0.000675 0.000825 2.5e-05
0.000725 0.000825 2.5e-05
0.000775 0.000825 2.5e-05
0.000825 0.000825 2.5e-05
0.000875 0.000825 2.5e-05
0.000925 0.000825 2.5e-05
0.000975 0.000825 2.5e-05
2.5e-05 0.000875 2.5e-05
7.5e-05 0.000875 2.5e-05
0.000125 0.000875 2.5e-05
0.000175 0.000875 2.5e-05
0.000225 0.000875 2.5e-05
0.000275 0.000875 2.5e-05
0.000325 0.000875 2.5e-05
0.000375 0.000875 2.5e-05
0.000425 0.000875 2.5e-05
0.000475 0.000875 2.5e-05
0.000525 0.000875 2.5e-05
0.000575 0.000875 2.5e-05
0.000625 0.000875 2.5e-05
0.000675 0.000875 2.5e-05
0.000725 0.000875 2.5e-05
0.000775 0.000875 2.5e-05
0.000825 0.000875 2.5e-05
0.000875 0.000875 2.5e-05
0.000925 0.000875 2.5e-05
0.000975 0.000875 2.5e-05
2.5e-05 0.000925 2.5e-05
7.5e-05 0.000925 2.5e-05
0.000125 0.000925 2.5e-05
0.000175 0.000925 2.5e-05
0.000225 0.000925 2.5e-05
0.000275 0.000925 2.5e-05
0.000325 0.000925 2.5e-05
0.000375 0.000925 2.5e-05
0.000425 0.000925 2.5e-05
0.000475 0.000925 2.5e-05
0.000525 0.000925 2.5e-05
0.000575 0.000925 2.5e-05
0.000625 0.000925 2.5e-05
0.000675 0.000925 2.5e-05
0.000725 0.000925 2.5e-05
0.000775 0.000925 2.5e-05
[...]
<PointData Scalars="pore_data">
<DataArray type="Float32" Name="diameter" format="ascii">
1.65261161841e-05 1.21336146126e-05 4.06614131191e-05 1.19632741486e-05 3.06658707257e-05 2.48946408238e-05 1.93806350133e-05 4.21404753658e-05 2.61622331092e-05 1.5409564699e-05 1.35471106983e-05 2.27966411192e-05 2.88287561722e-05 1.98039273214e-05 3.47166407913e-05 2.49879639213e-05 1.2249449188e-05 2.43315375773e-05 2.68177552448e-05 1.40226040349e-05 3.35172148323e-05 3.62317160313e-05 7.46882475365e-06 2.60216791391e-05 3.93906058421e-05 4.67721970267e-05 3.47947362343e-05 1.68409556671e-05 2.61410109805e-05 1.08979532671e-05 6.71103410223e-05 6.76042303673e-06 2.84977247074e-05 1.83650655183e-05 9.52931203244e-06 1.77060264957e-05 1.83213090203e-05 1.53224751888e-05 1.59443187475e-05 6.31504828034e-05 2.17143935497e-05 4.53870915146e-05 1.66439581069e-05 3.59536129054e-05 3.06677059089e-05 3.36256692154e-05 1.01064339278e-05 1.56035871359e-05 4.68702815998e-05 3.89583687286e-05 1.06498685419e-05 9.02393419563e-06 2.25824439091e-05 1.98540739653e-05 5.24103724888e-05 1.30720172483e-05 5.03926064448e-05 2.61667419e-05 3.15907490273e-05 1.37435435311e-05 6.57905690134e-06 1.43506041419e-05 2.6688504986e-05 1.60430978189e-05 3.11233563841e-05 2.36890736747e-05 7.50512085667e-06 9.58931139425e-06 1.78124917255e-05 4.21347777027e-05 1.25098619859e-05 3.13341945119e-05 2.08417084519e-05 2.17399629723e-05 1.68512854838e-05 8.85389243823e-06 4.83420093752e-05 1.92253978955e-05 8.06368271468e-06 3.67602822329e-05 3.18889924401e-05 2.89969525118e-05 1.13154572634e-05 2.02674092904e-05 1.77699202231e-05 3.88051164105e-05 2.25705703501e-05 1.98087939422e-05 6.89289881271e-05 2.32579239452e-05 1.07333735869e-05 3.43852143926e-05 3.96866611347e-05 1.91004703846e-05 1.56739329924e-05 2.24523387649e-05 4.33567456156e-05 1.42583474137e-05 2.96507486817e-05 1.35905160067e-05 4.45025023857e-05 6.6621037945e-06 2.40615223524e-05 1.53323937668e-05 1.92070258511e-05 1.66977971195e-05 1.04669377623e-05 3.04417988124e-05 2.68688749546e-05 3.69357291731e-05 1.15484184569e-05 3.06116858314e-05 5.09138161381e-05 1.71304654302e-05 1.37090562513e-05 1.39959775779e-05 3.11669328052e-05 1.74142325122e-05 2.18590772332e-05 1.09041002686e-05 1.16663681712e-05 1.41666768025e-05 1.28184868059e-05 3.65137307769e-05 1.15213046309e-05 1.76772603734e-05 8.16498488539e-06 1.88839056366e-05 1.0939907304e-05 8.34375856712e-06 3.67131955477e-05 2.17582005325e-05 2.27741803129e-05 2.87724086037e-05 4.26462776325e-05 2.58667381519e-05 7.40170978171e-06 4.74965386176e-05 2.70020734522e-05 6.7985449729e-06 1.22966192458e-05 2.32906344738e-05 3.07267381784e-05 1.95593708906e-05 2.74238898098e-05 2.45348112283e-05 1.46460803509e-05 2.69977920643e-05 1.90810112153e-05 1.58196511561e-05 3.70144407172e-05 4.49841092756e-05 1.95598368796e-05 1.11359927448e-05 1.36040885097e-05 1.33366587035e-05 2.656870275e-05 2.40214142922e-05 1.64235111356e-05 1.19935454284e-05 3.37221635843e-05 4.32037408751e-05 2.45551167508e-05 1.89182757974e-05 1.8863494078e-05 2.74268978477e-05 1.07741136625e-05 4.26714038965e-05 2.41536617055e-05 4.34325025265e-05 1.55665662621e-05 3.03341664964e-05 2.25621160554e-05 2.60698291048e-05 3.20371426357e-05 3.14131669113e-05 1.28581480942e-05 2.22269610169e-05 1.2042488098e-05 2.03050135519e-05 1.7536363121e-05 1.80299728107e-05 9.67056028646e-06 1.34403138288e-05 2.8325933236e-05 1.55603615282e-05 4.04288042301e-05 4.10754256211e-05 3.30482084815e-05 2.14782241858e-05 5.43608215012e-05 5.26254920073e-05 4.22555841801e-05 1.07583659384e-05 1.46041328979e-05 1.35751677879e-05 3.42478968598e-05 1.81296416597e-05 9.73230260252e-06 2.50403188026e-05 2.9538829637e-05 2.65958595605e-05 5.18023345332e-05 3.88407681195e-05 3.41818680706e-05 2.91441197658e-05 2.97497747444e-05 1.63507401719e-05 1.68123769162e-05 2.13645252345e-05 1.05728436611e-05 3.77490700761e-05 4.16613317883e-05 1.49124610658e-05 8.16558360204e-06 1.75071653353e-05 5.31461110195e-05 4.78639092892e-05 2.86335524e-05 1.14809908142e-05 1.17401772939e-05 2.10629024854e-05 3.60393680126e-05 1.30904662908e-05 1.71949846797e-05 5.78765351236e-05 2.03097196742e-05 2.47354586847e-05 3.39797320752e-05 1.22524886663e-05 1.78262332461e-05 7.89995601379e-06 1.02270446554e-05 6.63666235271e-06 3.00621794528e-05 1.43612655049e-05 1.67681213119e-05 3.02064245759e-05 6.73769235259e-06 1.67064014946e-05 3.55776738656e-05 3.97877102744e-05 1.78932941619e-05 3.37060425993e-05 1.76095042973e-05 3.12277858276e-05 1.41454416273e-05 3.62676026727e-05 1.14982577142e-05 2.42263457383e-05 7.83652814073e-06 4.5837272934e-05 8.4404976708e-06 9.14661025707e-06 2.14366150707e-05 1.82596506188e-05 1.29981160198e-05 1.48999953382e-05 2.86884977074e-05 1.48959860912e-05 1.10561794634e-05 2.83860813345e-05 2.08702708465e-05 2.10578540642e-05 2.89411079391e-05 4.53039624279e-05 1.63971689836e-05 4.92470674273e-05 3.18755636192e-05 9.85945557508e-06 1.45421955795e-05 3.35091059682e-05 2.19554787208e-05 1.89700539464e-05 3.40796796144e-05 2.8354503412e-05 1.62595377513e-05 2.58727765779e-05 3.98554907113e-05 1.7883656354e-05 1.17169362987e-05 3.52717054748e-05 1.40594759444e-05 2.59370285686e-05 1.12123009665e-05 2.27100644824e-05 2.11473288277e-05 1.3773672294e-05 3.29992948719e-05 2.2070206658e-05 3.5261145162e-05 1.97532598937e-05 1.87868138765e-05 2.53280160015e-05 2.71654653224e-05 9.70699971678e-06 1.62341844943e-05 1.39543272076e-05 3.0087072593e-05 2.76893287864e-05 1.31349738036e-05 8.34875260668e-06 1.7458040662e-05 5.46365172113e-05 1.92551686445e-05 4.6330510572e-05 2.55429877965e-05 5.63843412949e-05 1.85499442201e-05 2.30980982569e-05 1.68786429509e-05 2.34926185603e-05 1.76653770123e-05 7.59465193704e-06 3.25960304271e-05 1.93159842789e-05 2.54362673347e-05 2.6962449006e-05 1.26978726078e-05 1.73985559502e-05 9.8529062465e-06 3.33707763833e-05 2.45712089942e-05 4.36866797677e-05 4.00621896263e-05 6.25660007534e-06 1.88122386286e-05 1.74036106149e-05 7.88345061714e-06 2.18542944524e-05 3.96713810789e-05 2.56258181929e-05 1.71712156588e-05 1.30697875499e-05 1.24847939634e-05 1.37786670117e-05 4.13648920321e-05 3.73903554796e-05 9.09603377056e-06 2.82728195016e-05 1.4213494412e-05 3.31321062454e-05 2.49625457594e-05 1.03850570383e-05 1.69934890069e-05 2.94842061607e-05 2.82360179686e-05 1.59080758718e-05 1.2475542753e-05 3.90407466612e-05 1.5217556767e-05 2.78383075193e-05 1.64945019049e-05 1.89358960215e-05 3.15582330903e-05 2.26479441696e-05 1.35916518621e-05 1.25769519974e-05 1.49340396024e-05 3.25512486978e-05 1.03497233099e-05 3.4134571404e-05 3.54323377403e-05 1.80565996149e-05 2.64573530273e-05 2.17060226909e-05 4.34745397392e-05 3.72276375147e-05 7.30232143585e-06 2.11647053736e-05 1.68404042929e-05 2.56619877039e-05 6.3978818429e-06 3.23511040658e-05 1.08093892043e-05 2.12409200328e-05 8.78345002986e-06 1.77364948534e-05 1.52044480466e-05 4.55097203104e-05 9.92376947838e-06 2.32944614399e-05 1.87961670805e-05 2.40986766919e-05 3.00438705335e-05 2.98260292511e-05 2.53792406385e-05 7.04845095778e-06 1.09784383037e-05 1.7061662583e-05 2.36608395222e-05 1.33559427156e-05 1.4879638273e-05 1.33795455608e-05 3.33527176675e-05 1.76793309133e-05 8.94862312122e-06 2.87987327047e-05 1.49751084724e-05 4.46511797255e-05 1.80222938655e-05 1.48623357375e-05 1.47114759386e-05 1.28535635502e-05 4.69092108542e-05 1.93573866723e-05 2.18466706567e-05 3.59167115476e-05 3.06459477056e-05 7.38451415758e-06 1.66747579682e-05 2.32951521931e-05 1.73366358744e-05 7.99184245922e-06 2.11190735677e-05 1.52398326246e-05 2.58584711989e-05 2.33693386894e-05 2.48821133688e-05 3.30893884657e-05 1.93570725335e-05 1.27543270441e-05 2.51783165496e-05 4.21704382052e-05 1.03497880775e-05 1.43506601203e-05 1.62463271652e-05 2.03374863e-05 1.90884927755e-05 1.01141218922e-05 2.6013798285e-05 3.78756787152e-05 2.01114239914e-05 8.80032142324e-06 9.43277855407e-06 3.5178623331e-05 1.91287841167e-05 1.40968805039e-05 2.39335813289e-05 1.9609854041e-05 3.52829549302e-05 8.52982073684e-06 1.50823325205e-05 4.38118356382e-05 1.65946213438e-05 2.67253713689e-05 2.67778962255e-05 2.7223579192e-05 8.99437311974e-06 2.69132092268e-05 3.19348992466e-05 1.89965029107e-05 3.28577374671e-05 6.12301656427e-06 1.91446295595e-05 3.60394187944e-05 1.65171475848e-05 2.25464171131e-05 2.04762718056e-05 2.32919387995e-05 2.42451118425e-05 3.39082873132e-05 3.52699222731e-05 9.79134465496e-06 1.63534328446e-05 1.6094171205e-05 1.32012546965e-05 1.96554914361e-05 1.67534276308e-05 1.04599456371e-05 1.15468070703e-05 2.32486612581e-05 1.06022212502e-05 4.22505786021e-05 2.24579327635e-05 4.4995407884e-05 4.99493017009e-05 7.80619630262e-06 3.4982101427e-05 4.52702709649e-05 3.83251324185e-05 2.78604681467e-05 2.38576191571e-05 2.56076252247e-05 3.07715961845e-05 2.96535478663e-05 2.36207561642e-05 1.59485714754e-05 1.60237168612e-05 2.68811934439e-05 1.56454767997e-05 2.21632715584e-05 2.50038521422e-05 9.78359641077e-06 4.0930379099e-05 4.39678838615e-05 2.45406327742e-05 1.70678122352e-05 2.1221821778e-05 1.70409725073e-05 2.7393614734e-05 2.40480257523e-05 1.0091936821e-05 2.92631878416e-05 1.49788368716e-05 3.8577699965e-05 3.91556785504e-05 1.29335008276e-05 3.05553680606e-05 1.98953790822e-05 1.72487567683e-05 3.51174966457e-05 2.81856552903e-05 2.09020022429e-05 2.35149950747e-05 2.32666029699e-05 2.96718946789e-05 1.17100901732e-05 1.92670280181e-05 1.7401929678e-05 1.31460377973e-05 1.67740732999e-05 1.673615831e-05 2.40578710731e-05 1.99251253705e-05 3.02333049246e-05 3.96469532868e-05 3.03991682798e-05 6.06175684662e-05 2.11566388544e-05 2.68038357359e-05 1.77223796482e-05 2.51085970181e-05 1.11793857744e-05 1.50168899597e-05 2.06819700825e-05 3.85906140451e-05 3.23707116982e-05 2.90670764098e-05 4.92663577614e-05 2.48284842605e-05 1.51760275481e-05 3.17761505099e-05 1.70639233842e-05 2.20659271054e-05 1.4557361584e-05 2.65931037861e-05 8.61307066232e-06 3.1477087923e-05 3.11726122552e-05 1.5382210338e-05 2.04002502421e-05 1.10359621374e-05 3.40803529796e-05 2.32674123563e-05 1.12397578492e-05 2.49826898529e-05 2.63480566752e-05 4.82151099519e-05 1.43741828306e-05 4.09209723802e-05 3.55217202856e-05 1.75980948218e-05 2.78829373339e-05 9.83423448847e-06 2.85142141831e-05 3.71440389699e-05 2.40995173976e-05 3.91818414169e-05 1.16499949551e-05 3.2890428326e-05 2.17802136185e-05 3.87571403482e-05 1.48833901823e-05 1.74845547518e-05 2.39928091618e-05 4.08759433229e-05 2.60723303608e-05 5.24489518549e-05 3.11303734537e-05 1.75886945087e-05 1.10853636478e-05 2.03168268693e-05 1.89218637211e-05 2.37406792464e-05 2.33360969233e-05 3.88279414628e-05 4.08593820695e-05 8.16372626955e-06 1.34168033205e-05 1.00734857808e-05 1.08905754278e-05 3.93714590315e-05 1.95764223916e-05 2.32135406058e-05 2.10617765439e-05 4.28702275827e-05 2.1205649969e-05 3.27629879784e-05 8.81076229629e-06 1.59001258247e-05 2.34836468234e-05 2.61532506445e-05 3.02795466696e-05 1.77189482873e-05 1.6421139553e-05 1.69946884398e-05 4.03622782942e-05 2.91786292779e-05 1.95688467919e-05 3.14217641368e-05 3.24398441008e-05 3.10232344468e-05 3.01493555189e-05 1.2778086882e-05 3.57411519963e-05 1.48633754521e-05 3.05419540227e-05 3.83005812634e-05 2.70040270474e-05 3.05660124701e-05 1.29117657971e-05 1.28007517262e-05 3.75557477174e-05 1.22584802685e-05 1.58807681728e-05 1.80149484196e-05 1.02831200903e-05 1.49398245509e-05 1.82882168302e-05 2.51342172591e-05 2.15359109725e-05 1.2566745125e-05 2.04204753267e-05 1.57356366253e-05 1.7075240517e-05 1.76031112499e-05 2.66796015956e-05 2.96943164965e-05 1.63142217218e-05 6.139819195e-05 2.68973736395e-05 3.36985992252e-05 4.52012946887e-05 4.14004906473e-05 3.21663761376e-05 2.4960442507e-05 1.08200832037e-05 4.86419224402e-05 2.20322057685e-05 6.67941083479e-06 1.46415656192e-05 2.14075585013e-05 1.37082859981e-05 1.55984799893e-05 1.49383808442e-05 7.34759042041e-06 1.59309808783e-05 2.94880252402e-05 2.32973929222e-05 1.64501478491e-05 2.00993539948e-05 3.15466075557e-05 1.20956559765e-05 5.42391739589e-05 2.97883323068e-05 3.65417368458e-05 1.38224909604e-05 1.87072308273e-05 2.05904779024e-05 1.70579822485e-05 1.04672684742e-05 1.21458583416e-05 2.78476512143e-05 2.5105798332e-05 1.43369352421e-05 2.96261153628e-05 1.10969083455e-05 1.53106358643e-05 3.66311285049e-05 3.56858064431e-05 2.73743219118e-05 9.3440779184e-06 5.03182163716e-05 1.00858763539e-05 3.26370063603e-05 2.37045853807e-05 1.93079199315e-05 2.23299194189e-05 3.38966092982e-05 2.01761665479e-05 1.68731988919e-05 4.04837915707e-05 2.77280906482e-05 1.14502591088e-05 3.75395051283e-05 3.68917300773e-05 2.42784493992e-05 4.82577183249e-05 2.06698455966e-05 1.77207600041e-05 1.83102768276e-05 1.22200901355e-05 2.10375046978e-05 1.60243804642e-05 1.58745747521e-05 1.90310290284e-05 2.5031244322e-05 1.36433932067e-05 5.48013399333e-05 2.55141861208e-05 2.54660929017e-05 4.17571485761e-05 1.74312023275e-05 3.94410836952e-05 1.81278821812e-05 1.46284672851e-05 3.06978930844e-05 3.49742866573e-05 8.43868729201e-06 4.95188095061e-05 2.91959102472e-05 2.75503654956e-05 1.52232220783e-05 1.85378917255e-05 3.2874305203e-05 4.00263511227e-05 2.39986037794e-05 1.4640048292e-05 1.5246707589e-05 1.93332744172e-05 2.53311315504e-05 2.53372802537e-05 1.94870503044e-05 1.70597150714e-05 2.47405074356e-05 3.57172170713e-05 3.55750662998e-05 3.93722195014e-05 4.51777386405e-05 1.80610361938e-05 2.31535155874e-05 7.33241755795e-05 2.7654599266e-05 1.70812785461e-05 1.10244604687e-05 8.27884934644e-06 1.79155890058e-05 1.85833368743e-05 2.1823751557e-05 1.39328321585e-05 1.69254500569e-05 3.26784797911e-05 1.54359839128e-05 1.17289968164e-05 2.71130402674e-05 2.77066243274e-05 2.22683123301e-05 1.58635882542e-05 4.29098350579e-05 3.6319010603e-05 2.43473412975e-05 1.17170004819e-05 1.88697156363e-05 1.96081384982e-05 8.30730191577e-06 2.27987978099e-05 1.34436763178e-05 1.21243383022e-05 1.00954053443e-05 4.17600100551e-05 1.73233592116e-05 2.17583040178e-05 1.51192220188e-05 1.02738776793e-05 4.69247595699e-05 8.97282025365e-05 2.09499292344e-05 2.3053309065e-05 1.70980597925e-05 3.46093059443e-05 3.18323341422e-05 9.95931254084e-06 4.71726714489e-05 3.54710351292e-05 3.72806765495e-05 2.12200170179e-05 3.82397202544e-05 1.02296815589e-05 2.52001633879e-05 3.14794014487e-05 2.13186943429e-05 1.2765892265e-05 1.26446137226e-05 5.98394285751e-05 4.95142130937e-05 2.34223606932e-05 2.9678921939e-05 1.54311657438e-05 3.25452963222e-05 2.99671354588e-05 1.25013502843e-05 5.21681924414e-05 2.82804241895e-05 1.61191441078e-05 1.16036913447e-05 1.34543141905e-05 4.12193993557e-05 1.30638009334e-05 2.39663449998e-05 2.3515209785e-05 2.20135587039e-05 1.5323313185e-05 9.21448452779e-06 5.00525257124e-05 2.58295162292e-05 2.43693767105e-05 3.81297845665e-05 1.73789110282e-05 2.10552331061e-05 1.86441503451e-05 1.29642676133e-05 1.39064487177e-05 1.28355282231e-05 1.5266792109e-05 1.72879252589e-05 4.18796741588e-05 5.01099965442e-05 2.20322407241e-05 3.30817489913e-05 3.01224667557e-05 1.22914713263e-05 2.01945179794e-05 2.28237575556e-05 4.03209030435e-05 1.2071129784e-05 9.90192881569e-06 1.28036338685e-05 1.82219742044e-05 2.71698687141e-05 8.34221306777e-06 4.13475980995e-05 1.60499442215e-05 1.97266978801e-05 3.63911024123e-05 2.74510217014e-05 3.15022535839e-05 2.74979637101e-05 1.81648158952e-05 4.1327720627e-05 2.45556040826e-05 3.31949192482e-05 2.03945458139e-05 4.42251636552e-05 2.02356327322e-05 1.37430000347e-05 4.82311126247e-05 2.77500606074e-05 1.06758765536e-05 1.49096622599e-05 1.59486176825e-05 1.94029662781e-05 4.28684992742e-05 2.41347466765e-05 1.86675666905e-05 3.16658017451e-05 1.49701514013e-05 2.53576964793e-05 1.15068618815e-05 1.16239224582e-05 3.62181698399e-05 2.20219524295e-05 2.03398334697e-05 1.55409726556e-05 1.30623837272e-05 1.21936751353e-05 2.79103331171e-05 1.20547494962e-05 1.40769416726e-05 7.4457076854e-06 1.308897856e-05 1.73921301876e-05 2.63921112773e-05 3.43009852642e-05 1.9660836444e-05 4.13896884035e-05 1.53286538898e-05 1.97724273035e-05 1.91802652326e-05 3.96767412927e-05 3.24030023923e-05 2.60836425503e-05 1.09945649292e-05 1.86672164246e-05 6.79723353262e-06 2.48550641692e-05 2.34227150729e-05 1.55785035025e-05 3.53259649736e-05 2.92097158874e-05 2.73562649435e-05 2.23039690469e-05 8.38144504843e-06 3.61926646434e-05 1.8857920871e-05 3.2046622426e-05 2.42794902436e-05 2.65712882304e-05 7.49763164973e-05 1.07420207412e-05 1.1278726495e-05 1.73351845871e-05 1.46740209052e-05 2.14500004655e-05 1.88806578853e-05 4.0590676592e-05 3.57807629207e-05 4.91486696687e-05 2.04252381157e-05 3.87227842435e-05 3.02308759154e-05 2.27849001028e-05 1.23421351041e-05 2.29820806917e-05 1.32579839975e-05 8.40882242726e-06 1.01477144767e-05 3.71208814113e-05 2.35697442461e-05 3.37088395025e-05 3.0254187302e-05 2.7331038987e-05 2.66366726065e-05 3.29331250698e-05 1.72851093932e-05 4.72250486159e-05 1.82797206828e-05 2.96731759327e-05 1.4781749758e-05 1.31727515467e-05 2.3838862601e-05 3.20690667639e-05 1.40336323574e-05 2.01700380615e-05 9.88804225866e-06 4.73888212566e-05 9.00367045183e-06 1.60553001861e-05 5.73040525007e-05 1.25097088648e-05 2.32153801359e-05 2.97723070348e-05 5.48091663707e-05 2.76903873646e-05 4.42282472304e-05 3.91662802167e-05 1.08028139106e-05 2.47770785424e-05 2.36327955674e-05 1.55228588793e-05 8.04718630221e-06 7.65272533822e-06 2.0946301618e-05 7.06031819895e-06 3.31655052897e-05 6.0830402116e-06 1.68178317338e-05 2.70197675855e-05 1.8922813913e-05 1.3561164133e-05 1.33989165287e-05 1.47530716109e-05 6.86345253258e-06 2.78514465178e-05 4.15274043195e-05 1.44812609939e-05 9.19464665427e-06 3.04406992342e-05 1.78457073791e-05 6.70432675396e-06 2.02191051348e-05 3.8708622153e-05 8.48078490654e-06 1.58803829661e-05 3.43676829229e-05 1.81195500258e-05 2.3882822119e-05 2.70916203739e-05 1.28066824734e-05 1.5197870141e-05 1.39563244799e-05 2.08446216185e-05 4.49861059793e-05 2.77463620131e-05 2.05847495498e-05 1.25984993787e-05 1.47592389634e-05 2.891905557e-05 2.0860521622e-05 1.07343310623e-05 3.50086186105e-05 3.93436649e-05 9.87754162613e-06 5.68926033466e-05 1.24207800995e-05 1.53509359236e-05 1.91815828863e-05 3.69284651023e-05 2.07023890986e-05 3.10525539841e-05 2.2205143599e-05 3.00910786676e-05 2.49906757283e-05 8.98431843903e-06 1.97229674382e-05 1.12175541869e-05 8.19120329731e-06 2.90974757932e-05 3.38325527568e-05 7.37165525783e-06 4.71385279867e-05 1.03925236637e-05 8.72010032548e-06 8.88160675379e-06 4.06521870984e-05 2.96873555268e-05 2.17727298635e-05 1.87698999044e-05 3.2743260708e-05 2.97514486109e-05 1.01288762321e-05 2.98372390276e-05 1.16857264574e-05 1.46524711079e-05 1.36902954887e-05 5.22381884498e-05 2.0266992395e-05 9.11446463866e-06 2.69881366787e-05 3.92334368795e-05 4.2307577805e-05 1.75898624589e-05 1.62276894912e-05 7.26290337044e-06 1.51738047244e-05 4.62667126707e-05 2.14811758677e-05 3.73347264564e-05 3.28787769732e-05 2.10508061427e-05 1.18821490974e-05 2.74133064053e-05 4.51517640159e-05 2.46479477941e-05 3.19457631407e-05 5.33694855435e-05 3.8558994621e-05 1.92321480113e-05 1.14939055809e-05 1.88495271138e-05 4.53866734699e-05 2.3931783348e-05 8.21604073276e-06 1.62592976382e-05 1.18053655762e-05 1.14502802402e-05 3.82354281946e-05 3.90646310081e-05 8.26959876127e-06 2.21068054309e-05 3.95157319523e-05 1.60854616457e-05 1.8626172985e-05 1.4164674187e-05 1.90599531816e-05 3.09737842138e-05 4.05267605459e-05 1.27319537719e-05 1.84821774146e-05 2.86795305815e-05 1.77990742618e-05 6.69265032699e-05 2.24603162056e-05 2.14741617132e-05 6.01609863949e-05 2.19823234896e-05 1.2210580718e-05 3.10315212999e-05 2.43742997908e-05 2.04956097722e-05 4.08423003037e-05 2.63570905837e-05 3.63403125989e-05 9.17295716615e-06 3.44393108121e-05 2.45306876024e-05 2.81677901506e-05 2.68161755766e-05 3.05652561415e-05 6.38735740222e-06 3.20757324581e-05 2.94590065902e-05 1.34628964887e-05 1.61726155892e-05 1.46290345297e-05 3.34423373812e-05 3.50198204383e-05 1.78994222311e-05 2.14454157167e-05 1.09068879495e-05 2.85726375193e-05 1.32109710316e-05 1.50664902381