<VTKFile byte_order="LittleEndian" type="PolyData" version="0.1">
        <PolyData>
            <Piece NumberOfLines="12" NumberOfPoints="8">
                <Points>
                <DataArray Name="coords" NumberOfComponents="3" type="Float64">0.5	0.5	0.5	0.5	0.5	1.5	0.5	1.5	0.5	0.5	1.5	1.5	1.5	0.5	0.5	1.5	0.5	1.5	1.5	1.5	0.5	1.5	1.5	1.5</DataArray>
			</Points>
                <Lines>
                <DataArray Name="connectivity" NumberOfComponents="1" type="Int32">0	1	2	3	4	5	6	7	0	2	1	3	4	6	5	7	0	4	1	5	2	6	3	7</DataArray>
			<DataArray Name="offsets" NumberOfComponents="1" type="Int32">2	4	6	8	10	12	14	16	18	20	22	24</DataArray>
			</Lines>
                <PointData>
                <DataArray Name="network | net_01 | labels | pore.all" NumberOfComponents="1" type="Int32">1	1	1	1	1	1	1	1</DataArray>
			<DataArray Name="network | net_01 | labels | pore.back" NumberOfComponents="1" type="Int32">0	0	0	0	1	1	1	1</DataArray>
			<DataArray Name="network | net_01 | labels | pore.bottom" NumberOfComponents="1" type="Int32">1	0	1	0	1	0	1	0</DataArray>
			<DataArray Name="network | net_01 | labels | pore.front" NumberOfComponents="1" type="Int32">1	1	1	1	0	0	0	0</DataArray>
			<DataArray Name="network | net_01 | labels | pore.geo_01" NumberOfComponents="1" type="Int32">1	1	1	1	0	0	0	0</DataArray>
			<DataArray Name="network | net_01 | labels | pore.geo_02" NumberOfComponents="1" type="Int32">0	0	0	0	1	1	1	1</DataArray>
			<DataArray Name="network | net_01 | labels | pore.internal" NumberOfComponents="1" type="Int32">1	1	1	1	1	1	1	1</DataArray>
			<DataArray Name="network | net_01 | labels | pore.left" NumberOfComponents="1" type="Int32">1	1	0	0	1	1	0	0</DataArray>
			<DataArray Name="network | net_01 | labels | pore.right" NumberOfComponents="1" type="Int32">0	0	1	1	0	0	1	1</DataArray>
			<DataArray Name="network | net_01 | labels | pore.top" NumberOfComponents="1" type="Int32">0	1	0	1	0	1	0	1</DataArray>
			<DataArray Name="network | net_01 | properties | pore.boo" NumberOfComponents="1" type="Int32">1	1	1	1	1	1	1	1</DataArray>
			</PointData>
                <CellData>
                <DataArray Name="network | net_01 | labels | throat.all" NumberOfComponents="1" type="Int32">1	1	1	1	1	1	1	1	1	1	1	1</DataArray>
			<DataArray Name="network | net_01 | labels | throat.geo_01" NumberOfComponents="1" type="Int32">1	1	0	0	1	1	0	0	1	1	1	1</DataArray>
			<DataArray Name="network | net_01 | labels | throat.geo_02" NumberOfComponents="1" type="Int32">0	0	1	1	0	0	1	1	0	0	0	0</DataArray>
			<DataArray Name="network | net_01 | properties | throat.boo" NumberOfComponents="1" type="Int32">1	1	1	1	1	1	1	1	1	1	1	1</DataArray>
			</CellData>
            </Piece>
        </PolyData>
    </VTKFile>