<VTKFile byte_order="LittleEndian" type="PolyData" version="0.1">
        <PolyData>
            <Piece NumberOfLines="54" NumberOfPoints="27">
                <Points>
                <DataArray Name="coords" NumberOfComponents="3" type="Float64">0.5	0.5	0.5	0.5	0.5	1.5	0.5	0.5	2.5	0.5	1.5	0.5	0.5	1.5	1.5	0.5	1.5	2.5	0.5	2.5	0.5	0.5	2.5	1.5	0.5	2.5	2.5	1.5	0.5	0.5	1.5	0.5	1.5	1.5	0.5	2.5	1.5	1.5	0.5	1.5	1.5	1.5	1.5	1.5	2.5	1.5	2.5	0.5	1.5	2.5	1.5	1.5	2.5	2.5	2.5	0.5	0.5	2.5	0.5	1.5	2.5	0.5	2.5	2.5	1.5	0.5	2.5	1.5	1.5	2.5	1.5	2.5	2.5	2.5	0.5	2.5	2.5	1.5	2.5	2.5	2.5</DataArray>
			</Points>
                <Lines>
                <DataArray Name="connectivity" NumberOfComponents="1" type="Int32">0	1	1	2	3	4	4	5	6	7	7	8	9	10	10	11	12	13	13	14	15	16	16	17	18	19	19	20	21	22	22	23	24	25	25	26	0	3	1	4	2	5	3	6	4	7	5	8	9	12	10	13	11	14	12	15	13	16	14	17	18	21	19	22	20	23	21	24	22	25	23	26	0	9	1	10	2	11	3	12	4	13	5	14	6	15	7	16	8	17	9	18	10	19	11	20	12	21	13	22	14	23	15	24	16	25	17	26</DataArray>
			<DataArray Name="offsets" NumberOfComponents="1" type="Int32">2	4	6	8	10	12	14	16	18	20	22	24	26	28	30	32	34	36	38	40	42	44	46	48	50	52	54	56	58	60	62	64	66	68	70	72	74	76	78	80	82	84	86	88	90	92	94	96	98	100	102	104	106	108</DataArray>
			</Lines>
                <PointData>
                <DataArray Name="pore.Air_98nbk" NumberOfComponents="1" type="Int32">1	1	1	1	1	1	1	1	1	1	1	1	1	1	1	1	1	1	1	1	1	1	1	1	1	1	1</DataArray>
			<DataArray Name="pore.Cube_and_Cuboid_cLbrC" NumberOfComponents="1" type="Int32">1	1	1	1	1	1	1	1	1	1	1	1	1	1	1	1	1	1	1	1	1	1	1	1	1	1	1</DataArray>
			<DataArray Name="pore.Standard_hhwtP" NumberOfComponents="1" type="Int32">1	1	1	1	1	1	1	1	1	1	1	1	1	1	1	1	1	1	1	1	1	1	1	1	1	1	1</DataArray>
			<DataArray Name="pore.Standard_hhwtP|Air_98nbk" NumberOfComponents="1" type="Int32">1	1	1	1	1	1	1	1	1	1	1	1	1	1	1	1	1	1	1	1	1	1	1	1	1	1	1</DataArray>
			<DataArray Name="pore.all" NumberOfComponents="1" type="Int32">1	1	1	1	1	1	1	1	1	1	1	1	1	1	1	1	1	1	1	1	1	1	1	1	1	1	1</DataArray>
			<DataArray Name="pore.all|Air_98nbk" NumberOfComponents="1" type="Int32">1	1	1	1	1	1	1	1	1	1	1	1	1	1	1	1	1	1	1	1	1	1	1	1	1	1	1</DataArray>
			<DataArray Name="pore.area" NumberOfComponents="1" type="Float64">2.24131419552e-10	2.41084776107e-10	2.18293254718e-10	2.43040090742e-10	2.2395377514e-10	2.39451845291e-10	2.27138948127e-10	2.54052971584e-10	2.475508375e-10	2.63155646973e-10	2.33812752872e-10	2.6640801121e-10	3.28600311719e-10	2.35300979564e-10	2.43265080981e-10	2.42968049178e-10	3.78108489929e-10	3.35740781574e-10	2.51799418213e-10	2.07655066838e-10	2.29951113544e-10	2.38964068769e-10	2.2658513963e-10	2.27847468035e-10	2.98964170927e-10	1.99275729229e-10	2.35281747182e-10</DataArray>
			<DataArray Name="pore.back" NumberOfComponents="1" type="Int32">0	0	0	0	0	0	0	0	0	0	0	0	0	0	0	0	0	0	1	1	1	1	1	1	1	1	1</DataArray>
			<DataArray Name="pore.bottom" NumberOfComponents="1" type="Int32">1	0	0	1	0	0	1	0	0	1	0	0	1	0	0	1	0	0	1	0	0	1	0	0	1	0	0</DataArray>
			<DataArray Name="pore.contact_angle|Air_98nbk" NumberOfComponents="1" type="Float64">110.0	110.0	110.0	110.0	110.0	110.0	110.0	110.0	110.0	110.0	110.0	110.0	110.0	110.0	110.0	110.0	110.0	110.0	110.0	110.0	110.0	110.0	110.0	110.0	110.0	110.0	110.0</DataArray>
			<DataArray Name="pore.critical_pressure|Air_98nbk" NumberOfComponents="1" type="Float64">3786000.0	3786000.0	3786000.0	3786000.0	3786000.0	3786000.0	3786000.0	3786000.0	3786000.0	3786000.0	3786000.0	3786000.0	3786000.0	3786000.0	3786000.0	3786000.0	3786000.0	3786000.0	3786000.0	3786000.0	3786000.0	3786000.0	3786000.0	3786000.0	3786000.0	3786000.0	3786000.0</DataArray>
			<DataArray Name="pore.critical_temperature|Air_98nbk" NumberOfComponents="1" type="Float64">132.5	132.5	132.5	132.5	132.5	132.5	132.5	132.5	132.5	132.5	132.5	132.5	132.5	132.5	132.5	132.5	132.5	132.5	132.5	132.5	132.5	132.5	132.5	132.5	132.5	132.5	132.5</DataArray>
			<DataArray Name="pore.critical_volume|Air_98nbk" NumberOfComponents="1" type="Float64">0.002917	0.002917	0.002917	0.002917	0.002917	0.002917	0.002917	0.002917	0.002917	0.002917	0.002917	0.002917	0.002917	0.002917	0.002917	0.002917	0.002917	0.002917	0.002917	0.002917	0.002917	0.002917	0.002917	0.002917	0.002917	0.002917	0.002917</DataArray>
			<DataArray Name="pore.density|Air_98nbk" NumberOfComponents="1" type="Float64">1.18430710629	1.18430710629	1.18430710629	1.18430710629	1.18430710629	1.18430710629	1.18430710629	1.18430710629	1.18430710629	1.18430710629	1.18430710629	1.18430710629	1.18430710629	1.18430710629	1.18430710629	1.18430710629	1.18430710629	1.18430710629	1.18430710629	1.18430710629	1.18430710629	1.18430710629	1.18430710629	1.18430710629	1.18430710629	1.18430710629	1.18430710629</DataArray>
			<DataArray Name="pore.diameter" NumberOfComponents="1" type="Float64">1.49710193224e-05	1.55269049107e-05	1.47747505806e-05	1.55897431262e-05	1.49650852032e-05	1.54742316543e-05	1.50711296235e-05	1.59390392303e-05	1.57337483614e-05	1.62220728322e-05	1.52909369521e-05	1.63220100236e-05	1.81273360348e-05	1.53395234464e-05	1.5596957427e-05	1.55874324113e-05	1.9445011955e-05	1.83232306533e-05	1.58681888763e-05	1.44102417342e-05	1.51641390637e-05	1.5458462691e-05	1.50527452523e-05	1.50946171874e-05	1.72905804104e-05	1.41165055601e-05	1.53388965438e-05</DataArray>
			<DataArray Name="pore.diffusivity|Air_98nbk" NumberOfComponents="1" type="Float64">2.06754783643e-05	2.06754783643e-05	2.06754783643e-05	2.06754783643e-05	2.06754783643e-05	2.06754783643e-05	2.06754783643e-05	2.06754783643e-05	2.06754783643e-05	2.06754783643e-05	2.06754783643e-05	2.06754783643e-05	2.06754783643e-05	2.06754783643e-05	2.06754783643e-05	2.06754783643e-05	2.06754783643e-05	2.06754783643e-05	2.06754783643e-05	2.06754783643e-05	2.06754783643e-05	2.06754783643e-05	2.06754783643e-05	2.06754783643e-05	2.06754783643e-05	2.06754783643e-05	2.06754783643e-05</DataArray>
			<DataArray Name="pore.front" NumberOfComponents="1" type="Int32">1	1	1	1	1	1	1	1	1	0	0	0	0	0	0	0	0	0	0	0	0	0	0	0	0	0	0</DataArray>
			<DataArray Name="pore.index" NumberOfComponents="1" type="Int32">0	1	2	3	4	5	6	7	8	9	10	11	12	13	14	15	16	17	18	19	20	21	22	23	24	25	26</DataArray>
			<DataArray Name="pore.internal" NumberOfComponents="1" type="Int32">1	1	1	1	1	1	1	1	1	1	1	1	1	1	1	1	1	1	1	1	1	1	1	1	1	1	1</DataArray>
			<DataArray Name="pore.left" NumberOfComponents="1" type="Int32">1	1	1	0	0	0	0	0	0	1	1	1	0	0	0	0	0	0	1	1	1	0	0	0	0	0	0</DataArray>
			<DataArray Name="pore.molar_density|Air_98nbk" NumberOfComponents="1" type="Float64">40.8945823995	40.8945823995	40.8945823995	40.8945823995	40.8945823995	40.8945823995	40.8945823995	40.8945823995	40.8945823995	40.8945823995	40.8945823995	40.8945823995	40.8945823995	40.8945823995	40.8945823995	40.8945823995	40.8945823995	40.8945823995	40.8945823995	40.8945823995	40.8945823995	40.8945823995	40.8945823995	40.8945823995	40.8945823995	40.8945823995	40.8945823995</DataArray>
			<DataArray Name="pore.molecular_weight|Air_98nbk" NumberOfComponents="1" type="Float64">0.02896	0.02896	0.02896	0.02896	0.02896	0.02896	0.02896	0.02896	0.02896	0.02896	0.02896	0.02896	0.02896	0.02896	0.02896	0.02896	0.02896	0.02896	0.02896	0.02896	0.02896	0.02896	0.02896	0.02896	0.02896	0.02896	0.02896</DataArray>
			<DataArray Name="pore.pressure|Air_98nbk" NumberOfComponents="1" type="Float64">101325.0	101325.0	101325.0	101325.0	101325.0	101325.0	101325.0	101325.0	101325.0	101325.0	101325.0	101325.0	101325.0	101325.0	101325.0	101325.0	101325.0	101325.0	101325.0	101325.0	101325.0	101325.0	101325.0	101325.0	101325.0	101325.0	101325.0</DataArray>
			<DataArray Name="pore.right" NumberOfComponents="1" type="Int32">0	0	0	0	0	0	1	1	1	0	0	0	0	0	0	1	1	1	0	0	0	0	0	0	1	1	1</DataArray>
			<DataArray Name="pore.seed" NumberOfComponents="1" type="Float64">0.287015759937	0.486791166585	0.214237242471	0.507702598983	0.284804681077	0.468926107102	0.324254405786	0.615045297826	0.553855573441	0.689972987133	0.404632352292	0.713776479482	0.948416665154	0.42196803253	0.510074383967	0.506941640066	0.98880334039	0.958335274765	0.594562616223	0.0887151909245	0.358586606698	0.463520766345	0.317430863037	0.332956876383	0.878809924362	0.013961289872	0.421745596006</DataArray>
			<DataArray Name="pore.temperature|Air_98nbk" NumberOfComponents="1" type="Float64">298.0	298.0	298.0	298.0	298.0	298.0	298.0	298.0	298.0	298.0	298.0	298.0	298.0	298.0	298.0	298.0	298.0	298.0	298.0	298.0	298.0	298.0	298.0	298.0	298.0	298.0	298.0</DataArray>
			<DataArray Name="pore.thermal_conductivity|Air_98nbk" NumberOfComponents="1" type="Float64">0.0263694252068	0.0263694252068	0.0263694252068	0.0263694252068	0.0263694252068	0.0263694252068	0.0263694252068	0.0263694252068	0.0263694252068	0.0263694252068	0.0263694252068	0.0263694252068	0.0263694252068	0.0263694252068	0.0263694252068	0.0263694252068	0.0263694252068	0.0263694252068	0.0263694252068	0.0263694252068	0.0263694252068	0.0263694252068	0.0263694252068	0.0263694252068	0.0263694252068	0.0263694252068	0.0263694252068</DataArray>
			<DataArray Name="pore.top" NumberOfComponents="1" type="Int32">0	0	1	0	0	1	0	0	1	0	0	1	0	0	1	0	0	1	0	0	1	0	0	1	0	0	1</DataArray>
			<DataArray Name="pore.viscosity|Air_98nbk" NumberOfComponents="1" type="Float64">1.84444451709e-05	1.84444451709e-05	1.84444451709e-05	1.84444451709e-05	1.84444451709e-05	1.84444451709e-05	1.84444451709e-05	1.84444451709e-05	1.84444451709e-05	1.84444451709e-05	1.84444451709e-05	1.84444451709e-05	1.84444451709e-05	1.84444451709e-05	1.84444451709e-05	1.84444451709e-05	1.84444451709e-05	1.84444451709e-05	1.84444451709e-05	1.84444451709e-05	1.84444451709e-05	1.84444451709e-05	1.84444451709e-05	1.84444451709e-05	1.84444451709e-05	1.84444451709e-05	1.84444451709e-05</DataArray>
			<DataArray Name="pore.volume" NumberOfComponents="1" type="Float64">3.35547581288e-15	3.74330039404e-15	3.22522839187e-15	3.78893258405e-15	3.35148732656e-15	3.70533332408e-15	3.42324052975e-15	4.04936028064e-15	3.89490258389e-15	4.26893007141e-15	3.57521606275e-15	4.34831422934e-15	5.95664827168e-15	3.60940489299e-15	3.79419511154e-15	3.78724804467e-15	7.35232410695e-15	6.15185578051e-15	3.99560072713e-15	2.99235971048e-15	3.48701066365e-15	3.69401714156e-15	3.41072838481e-15	3.43927030711e-15	5.16926403722e-15	2.81307693966e-15	3.60896237866e-15</DataArray>
			</PointData>
                <CellData>
                <DataArray Name="throat.Air_98nbk" NumberOfComponents="1" type="Int32">1	1	1	1	1	1	1	1	1	1	1	1	1	1	1	1	1	1	1	1	1	1	1	1	1	1	1	1	1	1	1	1	1	1	1	1	1	1	1	1	1	1	1	1	1	1	1	1	1	1	1	1	1	1</DataArray>
			<DataArray Name="throat.Cube_and_Cuboid_cLbrC" NumberOfComponents="1" type="Int32">1	1	1	1	1	1	1	1	1	1	1	1	1	1	1	1	1	1	1	1	1	1	1	1	1	1	1	1	1	1	1	1	1	1	1	1	1	1	1	1	1	1	1	1	1	1	1	1	1	1	1	1	1	1</DataArray>
			<DataArray Name="throat.Standard_hhwtP" NumberOfComponents="1" type="Int32">1	1	1	1	1	1	1	1	1	1	1	1	1	1	1	1	1	1	1	1	1	1	1	1	1	1	1	1	1	1	1	1	1	1	1	1	1	1	1	1	1	1	1	1	1	1	1	1	1	1	1	1	1	1</DataArray>
			<DataArray Name="throat.Standard_hhwtP|Air_98nbk" NumberOfComponents="1" type="Int32">1	1	1	1	1	1	1	1	1	1	1	1	1	1	1	1	1	1	1	1	1	1	1	1	1	1	1	1	1	1	1	1	1	1	1	1	1	1	1	1	1	1	1	1	1	1	1	1	1	1	1	1	1	1</DataArray>
			<DataArray Name="throat.all" NumberOfComponents="1" type="Int32">1	1	1	1	1	1	1	1	1	1	1	1	1	1	1	1	1	1	1	1	1	1	1	1	1	1	1	1	1	1	1	1	1	1	1	1	1	1	1	1	1	1	1	1	1	1	1	1	1	1	1	1	1	1</DataArray>
			<DataArray Name="throat.all|Air_98nbk" NumberOfComponents="1" type="Int32">1	1	1	1	1	1	1	1	1	1	1	1	1	1	1	1	1	1	1	1	1	1	1	1	1	1	1	1	1	1	1	1	1	1	1	1	1	1	1	1	1	1	1	1	1	1	1	1	1	1	1	1	1	1</DataArray>
			<DataArray Name="throat.area" NumberOfComponents="1" type="Float64">2.24131419552e-10	2.18293254718e-10	2.2395377514e-10	2.2395377514e-10	2.27138948127e-10	2.475508375e-10	2.33812752872e-10	2.33812752872e-10	2.35300979564e-10	2.35300979564e-10	2.42968049178e-10	3.35740781574e-10	2.07655066838e-10	2.07655066838e-10	2.2658513963e-10	2.2658513963e-10	1.99275729229e-10	1.99275729229e-10	2.24131419552e-10	2.2395377514e-10	2.18293254718e-10	2.27138948127e-10	2.2395377514e-10	2.39451845291e-10	2.63155646973e-10	2.33812752872e-10	2.43265080981e-10	2.42968049178e-10	2.35300979564e-10	2.43265080981e-10	2.38964068769e-10	2.07655066838e-10	2.27847468035e-10	2.38964068769e-10	1.99275729229e-10	2.27847468035e-10	2.24131419552e-10	2.33812752872e-10	2.18293254718e-10	2.43040090742e-10	2.2395377514e-10	2.39451845291e-10	2.27138948127e-10	2.54052971584e-10	2.475508375e-10	2.51799418213e-10	2.07655066838e-10	2.29951113544e-10	2.38964068769e-10	2.2658513963e-10	2.27847468035e-10	2.42968049178e-10	1.99275729229e-10	2.35281747182e-10</DataArray>
			<DataArray Name="throat.diameter" NumberOfComponents="1" type="Float64">1.49710193224e-05	1.47747505806e-05	1.49650852032e-05	1.49650852032e-05	1.50711296235e-05	1.57337483614e-05	1.52909369521e-05	1.52909369521e-05	1.53395234464e-05	1.53395234464e-05	1.55874324113e-05	1.83232306533e-05	1.44102417342e-05	1.44102417342e-05	1.50527452523e-05	1.50527452523e-05	1.41165055601e-05	1.41165055601e-05	1.49710193224e-05	1.49650852032e-05	1.47747505806e-05	1.50711296235e-05	1.49650852032e-05	1.54742316543e-05	1.62220728322e-05	1.52909369521e-05	1.5596957427e-05	1.55874324113e-05	1.53395234464e-05	1.5596957427e-05	1.5458462691e-05	1.44102417342e-05	1.50946171874e-05	1.5458462691e-05	1.41165055601e-05	1.50946171874e-05	1.49710193224e-05	1.52909369521e-05	1.47747505806e-05	1.55897431262e-05	1.49650852032e-05	1.54742316543e-05	1.50711296235e-05	1.59390392303e-05	1.57337483614e-05	1.58681888763e-05	1.44102417342e-05	1.51641390637e-05	1.5458462691e-05	1.50527452523e-05	1.50946171874e-05	1.55874324113e-05	1.41165055601e-05	1.53388965438e-05</DataArray>
			<DataArray Name="throat.diffusive_conductance|Air_98nbk" NumberOfComponents="1" type="Float64">1.48838599472e-13	1.44961676879e-13	1.48720640068e-13	1.48720625216e-13	1.50835847879e-13	1.64390672107e-13	1.55267727899e-13	1.55267741038e-13	1.56256250233e-13	1.56255923318e-13	1.61347860175e-13	2.22955122172e-13	1.37897262098e-13	1.37897180652e-13	1.50468020522e-13	1.50467972271e-13	1.32332976053e-13	1.32332770711e-13	1.48838607549e-13	1.48720632e-13	1.44961670337e-13	1.50835802624e-13	1.48720684428e-13	1.59012386587e-13	1.74753601881e-13	1.5526760882e-13	1.61544705255e-13	1.61347696323e-13	1.56256407156e-13	1.61544970165e-13	1.58688489997e-13	1.37897167484e-13	1.51306249429e-13	1.58688680057e-13	1.32332738943e-13	1.51306272822e-13	1.48838687362e-13	1.55267634583e-13	1.44961773496e-13	1.61395536724e-13	1.48720607776e-13	1.59012367377e-13	1.50835802321e-13	1.68708996285e-13	1.64390998539e-13	1.67212046692e-13	1.37897195544e-13	1.52703359171e-13	1.58688786205e-13	1.50468004858e-13	1.51306306948e-13	1.61347587719e-13	1.32333184965e-13	1.56243502464e-13</DataArray>
			<DataArray Name="throat.hydraulic_conductance|Air_98nbk" NumberOfComponents="1" type="Float64">6.68467424755e-17	6.34096778893e-17	6.6740828487e-17	6.67408146659e-17	6.86527948973e-17	8.1546116281e-17	7.27463888306e-17	7.27464009694e-17	7.36756024172e-17	7.36753140545e-17	7.85552327346e-17	1.49997283797e-16	5.73799908382e-17	5.73799254795e-17	6.83183695961e-17	6.83183220022e-17	5.28427253226e-17	5.28425860032e-17	6.68467499777e-17	6.67408210051e-17	6.34096720837e-17	6.86527528468e-17	6.67408685526e-17	7.62976046622e-17	9.2151223723e-17	7.27462716167e-17	7.87470771807e-17	7.85551070862e-17	7.3675715956e-17	7.87473130722e-17	7.5987097891e-17	5.73799143488e-17	6.90816625538e-17	7.59872752176e-17	5.28425615456e-17	6.9081685967e-17	6.68468209388e-17	7.27462981381e-17	6.34097592541e-17	7.86016979346e-17	6.67407981656e-17	7.62975845377e-17	6.86527525596e-17	8.58865547304e-17	8.15464243775e-17	8.43692229961e-17	5.73799378703e-17	7.03633073831e-17	7.59873624888e-17	6.83183544039e-17	6.90817191377e-17	7.85550149279e-17	5.2842842513e-17	7.36635772559e-17</DataArray>
			<DataArray Name="throat.length" NumberOfComponents="1" type="Float64">0.999984751038	0.999984849172	0.999984722586	0.999984780342	0.999984494916	0.999984163606	0.999984243495	0.999984193527	0.99998326657	0.99998453176	0.999982483778	0.999981115879	0.999984860785	0.99998521281	0.999984744396	0.999984926319	0.999984296457	0.999985272299	0.999984719619	0.999984754005	0.999984875509	0.999984669564	0.999984547938	0.99998439601	0.999982825296	0.99998468477	0.999984040516	0.999983142616	0.999982607732	0.999983039906	0.999984336674	0.999985268507	0.999984870622	0.999983625478	0.999985415375	0.999984783243	0.999984403454	0.999984591079	0.99998445162	0.99998314146	0.999984847696	0.999984464405	0.999984670719	0.999982307974	0.99998297151	0.999983954869	0.999985149411	0.999984256925	0.999983207101	0.999984803866	0.999984654213	0.999983560994	0.999983219241	0.999983168936</DataArray>
			<DataArray Name="throat.seed" NumberOfComponents="1" type="Float64">0.287015759937	0.214237242471	0.284804681077	0.284804681077	0.324254405786	0.553855573441	0.404632352292	0.404632352292	0.42196803253	0.42196803253	0.506941640066	0.958335274765	0.0887151909245	0.0887151909245	0.317430863037	0.317430863037	0.013961289872	0.013961289872	0.287015759937	0.284804681077	0.214237242471	0.324254405786	0.284804681077	0.468926107102	0.689972987133	0.404632352292	0.510074383967	0.506941640066	0.42196803253	0.510074383967	0.463520766345	0.0887151909245	0.332956876383	0.463520766345	0.013961289872	0.332956876383	0.287015759937	0.404632352292	0.214237242471	0.507702598983	0.284804681077	0.468926107102	0.324254405786	0.615045297826	0.553855573441	0.594562616223	0.0887151909245	0.358586606698	0.463520766345	0.317430863037	0.332956876383	0.506941640066	0.013961289872	0.421745596006</DataArray>
			<DataArray Name="throat.surface_area" NumberOfComponents="1" type="Float64">5.98831641197e-05	5.90981069234e-05	5.98594263018e-05	5.9859429759e-05	6.02835837773e-05	6.29339967823e-05	6.11627840814e-05	6.11627810251e-05	6.13570670544e-05	6.1357144684e-05	6.23486375136e-05	7.32915385408e-05	5.76400942978e-05	5.76401145889e-05	6.02100624543e-05	6.0210073408e-05	5.64651355239e-05	5.64651906258e-05	5.98831622382e-05	5.98594281825e-05	5.90981084799e-05	6.02835943058e-05	5.98594158473e-05	6.18959607782e-05	6.48871768916e-05	6.11628110714e-05	6.23868340306e-05	6.23486785919e-05	6.13570266293e-05	6.23867716047e-05	6.18328822403e-05	5.76401177993e-05	6.0377555261e-05	6.18328382643e-05	5.64651987047e-05	6.03775499852e-05	5.98831433049e-05	6.11628053409e-05	5.90980834285e-05	6.23579212238e-05	5.98594337909e-05	6.18959650116e-05	6.02835943755e-05	6.37550289455e-05	6.29339217578e-05	6.34717370764e-05	5.76401109345e-05	6.06556013343e-05	6.18328123944e-05	6.0210066035e-05	6.03775421946e-05	6.23487046777e-05	5.64650746978e-05	6.13545534955e-05</DataArray>
			<DataArray Name="throat.volume" NumberOfComponents="1" type="Float64">2.24128001781e-10	2.18289947394e-10	2.23950353706e-10	2.2395036664e-10	2.27135426318e-10	2.47546917188e-10	2.338090688e-10	2.33809057117e-10	2.35297042171e-10	2.35297339872e-10	2.42963793295e-10	3.35734441405e-10	2.07651923104e-10	2.07651996203e-10	2.26581682937e-10	2.26581724158e-10	1.99272599894e-10	1.99272794356e-10	2.24127994739e-10	2.23950360742e-10	2.18289953143e-10	2.27135465988e-10	2.23950314593e-10	2.39448108887e-10	2.63151127353e-10	2.33809171976e-10	2.43261198595e-10	2.42963953372e-10	2.35296887146e-10	2.43260955182e-10	2.38960325797e-10	2.07652007769e-10	2.27844020844e-10	2.38960155847e-10	1.99272822867e-10	2.27844000935e-10	2.24127923876e-10	2.3380915007e-10	2.18289860611e-10	2.43035993441e-10	2.23950381725e-10	2.39448125264e-10	2.2713546625e-10	2.54048476872e-10	2.47546622083e-10	2.51795378058e-10	2.07651983038e-10	2.29947493407e-10	2.3896005587e-10	2.26581696412e-10	2.27843971536e-10	2.42964055024e-10	1.99272385231e-10	2.3527778714e-10</DataArray>
			</CellData>
            </Piece>
        </PolyData>
    </VTKFile>